#INFO: **** input file is /burg/ccce/users/eav2136/projects/core_level_spectroscopy/01_peommp2_cbe/meanfield.py ****
#!/usr/bin/env python
import json
from pyscf.pbc import gto, scf
from pyscf.pbc.tools import lattice, pyscf_ase
from pyscf.pbc.scf import chkfile
from fileutils import load, dump
import sys

material = load("data/{}".format(sys.argv[1]))
# Create Cell
cell = gto.Cell()
ase_atom = lattice.get_ase_atom(material["formula"])
cell.atom = pyscf_ase.ase_atoms_to_pyscf(ase_atom)
cell.a = ase_atom.cell[:]
cell.unit = "B"
cell.basis = material["basis"]
cell.exp_to_discard = material["exp_to_discard"]
cell.verbose = 7
cell.build()

# Mean Field
kdensity = material["kdensity"]
kmesh = [kdensity, kdensity, kdensity]
kpts = cell.make_kpts(kmesh, scaled_center=material["vb_scaled_center"])
mymf = scf.KRHF(cell, kpts=kpts, exxdiv="ewald")
mymf.chkfile = "data/{}".format(material["chk"])
mymf = mymf.density_fit()
mymf.with_df._cderi_to_save = "data/{}".format(material["cderi"])
ekrhf = mymf.kernel()
convergence = mymf.converged
mymf_data = dict([("ekrhf", float(ekrhf)),
                  ("convergence", bool(convergence))])
dump(mymf_data, "data/{}".format(material["ekrhf"]))
#INFO: ******************** input file end ********************


System: uname_result(system='Linux', node='g146', release='4.18.0-193.el8.x86_64', version='#1 SMP Fri Mar 27 14:35:58 UTC 2020', machine='x86_64')  Threads 32
Python 3.10.12 (main, Jul 29 2023, 11:27:27) [GCC 13.2.0]
numpy 1.25.1  scipy 1.10.1
Date: Thu Jan 25 12:01:20 2024
PySCF version 2.0.1
PySCF path  /burg/berkelbach/users/eav2136/builds/pyscf/projected-cvs/pyscf
GIT ORIG_HEAD 0bfbc692adf3ea63b8a509210433219cd1c472a2
GIT HEAD (branch projected-cvs) e14caaa2dddc538b9be2d86f01e5b456fc92da36

[ENV] PYSCF_TMPDIR /burg/ccce/users/eav2136/projects/core_level_spectroscopy/01_peommp2_cbe/tmp
[ENV] PYSCF_MAX_MEMORY 700000
[CONFIG] DEBUG = False
[CONFIG] MAX_MEMORY = 700000
[CONFIG] TMPDIR = /burg/ccce/users/eav2136/projects/core_level_spectroscopy/01_peommp2_cbe/tmp
[CONFIG] UNIT = angstrom
[CONFIG] VERBOSE = 3
[CONFIG] conf_file = None
[INPUT] verbose = 7
[INPUT] max_memory = 700000 
[INPUT] num. atoms = 4
[INPUT] num. electrons = 40
[INPUT] charge = 0
[INPUT] spin (= nelec alpha-beta = 2S) = 0
[INPUT] symmetry False subgroup None
[INPUT] Mole.unit = B
[INPUT]  1 Al     0.000000000000   0.000000000000   0.000000000000 AA    0.000000000000   0.000000000000   0.000000000000 Bohr
[INPUT]  2 N      0.000000000000   1.795559208370   0.597603705456 AA    0.000000000000   3.393115144260   1.129307334337 Bohr
[INPUT]  3 Al     0.000000000000   1.795559208370   2.489999821373 AA    0.000000000000   3.393115144260   4.705417712610 Bohr
[INPUT]  4 N      0.000000000000   0.000000000000   3.087603526828 AA    0.000000000000   0.000000000000   5.834725046947 Bohr
[INPUT] ---------------- BASIS SET ---------------- 
[INPUT] l, kappa, [nprim/nctr], expnt,             c_1 c_2 ...
[INPUT] Al
[INPUT] 0    0    [13   /3   ]  205500            6.78836e-05 -1.76377e-05 4.07315e-06
                                30780             0.000527149 -0.000137195 3.16566e-05
                                7006              0.00276203 -0.00071891 0.000166116
                                1985              0.0114728 -0.00301146 0.000694992
                                649.1             0.0398188 -0.0106014 0.00245511
                                235               0.11504 -0.0321345 0.00744598
                                91.62             0.260887 -0.0803156 0.0188253
                                37.67             0.396386 -0.156794 0.0372772
                                15.91             0.284597 -0.168376 0.0419496
                                5.85              0.0444583 0.126879 -0.0354375
                                2.542             -0.00489838 0.561494 -0.175132
                                1.057             0.00261253 0.436613 -0.276203
                                0.1455            0.000722068 -0.0114563 0.652809
[INPUT] 0    0    [1    /1   ]  0.2931               1
[INPUT] 0    0    [1    /1   ]  0.0565               1
[INPUT] 1    0    [7    /2   ]  444.4             0.00162786 -0.000286341
                                105.1             0.0130687 -0.00242308
                                33.47             0.0612341 -0.0108658
                                12.33             0.18787 -0.0364307
                                4.869             0.360452 -0.0641074
                                1.961             0.408454 -0.0972239
                                0.1888            0.00976514 0.503448
[INPUT] 1    0    [1    /1   ]  0.7834               1
[INPUT] 1    0    [1    /1   ]  0.05557              1
[INPUT] 2    0    [1    /1   ]  0.109                1
[INPUT] 2    0    [1    /1   ]  0.333                1
[INPUT] 3    0    [1    /1   ]  0.244                1
[INPUT] 0    0    [1    /1   ]  7.488                1
[INPUT] 0    0    [1    /1   ]  1.272                1
[INPUT] 1    0    [1    /1   ]  2.202                1
[INPUT] 1    0    [1    /1   ]  5.548                1
[INPUT] 2    0    [1    /1   ]  2.634                1
[INPUT] 2    0    [1    /1   ]  8.646                1
[INPUT] 3    0    [1    /1   ]  5.686                1
[INPUT] N
[INPUT] 0    0    [8    /2   ]  11420             0.000523 -0.000115
                                1712              0.004045 -0.000895
                                389.3             0.020775 -0.004624
                                110               0.080727 -0.018528
                                35.57             0.233074 -0.057339
                                12.54             0.433501 -0.132076
                                4.644             0.347472 -0.17251
                                0.5118            -0.008508 0.599944
[INPUT] 0    0    [1    /1   ]  1.293                1
[INPUT] 0    0    [1    /1   ]  0.1787               1
[INPUT] 1    0    [3    /1   ]  26.63             0.01467
                                5.948             0.091764
                                1.742             0.298683
[INPUT] 1    0    [1    /1   ]  0.555                1
[INPUT] 1    0    [1    /1   ]  0.1725               1
[INPUT] 2    0    [1    /1   ]  1.654                1
[INPUT] 2    0    [1    /1   ]  0.469                1
[INPUT] 3    0    [1    /1   ]  1.093                1
[INPUT] 0    0    [1    /1   ]  5.952                1
[INPUT] 0    0    [1    /1   ]  16.201               1
[INPUT] 1    0    [1    /1   ]  11.871               1
[INPUT] 1    0    [1    /1   ]  44.849               1
[INPUT] 2    0    [1    /1   ]  14.2                 1

Ewald components = 1.30435514859409e-35, -627.49757153652, 488.979720419325
nuclear repulsion = -138.517851117195
number of shells = 60
number of NR pGTOs = 278
number of NR cGTOs = 204
basis = ccpcvtz
ecp = {}
bas 0, expnt(s) = [2.055e+05 3.078e+04 7.006e+03 1.985e+03 6.491e+02 2.350e+02 9.162e+01
 3.767e+01 1.591e+01 5.850e+00 2.542e+00 1.057e+00 1.455e-01]
bas 1, expnt(s) = [0.2931]
bas 2, expnt(s) = [0.0565]
bas 3, expnt(s) = [4.444e+02 1.051e+02 3.347e+01 1.233e+01 4.869e+00 1.961e+00 1.888e-01]
bas 4, expnt(s) = [0.7834]
bas 5, expnt(s) = [0.05557]
bas 6, expnt(s) = [0.109]
bas 7, expnt(s) = [0.333]
bas 8, expnt(s) = [0.244]
bas 9, expnt(s) = [7.488]
bas 10, expnt(s) = [1.272]
bas 11, expnt(s) = [2.202]
bas 12, expnt(s) = [5.548]
bas 13, expnt(s) = [2.634]
bas 14, expnt(s) = [8.646]
bas 15, expnt(s) = [5.686]
bas 16, expnt(s) = [1.142e+04 1.712e+03 3.893e+02 1.100e+02 3.557e+01 1.254e+01 4.644e+00
 5.118e-01]
bas 17, expnt(s) = [1.293]
bas 18, expnt(s) = [0.1787]
bas 19, expnt(s) = [26.63   5.948  1.742]
bas 20, expnt(s) = [0.555]
bas 21, expnt(s) = [0.1725]
bas 22, expnt(s) = [1.654]
bas 23, expnt(s) = [0.469]
bas 24, expnt(s) = [1.093]
bas 25, expnt(s) = [5.952]
bas 26, expnt(s) = [16.201]
bas 27, expnt(s) = [11.871]
bas 28, expnt(s) = [44.849]
bas 29, expnt(s) = [14.2]
bas 30, expnt(s) = [2.055e+05 3.078e+04 7.006e+03 1.985e+03 6.491e+02 2.350e+02 9.162e+01
 3.767e+01 1.591e+01 5.850e+00 2.542e+00 1.057e+00 1.455e-01]
bas 31, expnt(s) = [0.2931]
bas 32, expnt(s) = [0.0565]
bas 33, expnt(s) = [4.444e+02 1.051e+02 3.347e+01 1.233e+01 4.869e+00 1.961e+00 1.888e-01]
bas 34, expnt(s) = [0.7834]
bas 35, expnt(s) = [0.05557]
bas 36, expnt(s) = [0.109]
bas 37, expnt(s) = [0.333]
bas 38, expnt(s) = [0.244]
bas 39, expnt(s) = [7.488]
bas 40, expnt(s) = [1.272]
bas 41, expnt(s) = [2.202]
bas 42, expnt(s) = [5.548]
bas 43, expnt(s) = [2.634]
bas 44, expnt(s) = [8.646]
bas 45, expnt(s) = [5.686]
bas 46, expnt(s) = [1.142e+04 1.712e+03 3.893e+02 1.100e+02 3.557e+01 1.254e+01 4.644e+00
 5.118e-01]
bas 47, expnt(s) = [1.293]
bas 48, expnt(s) = [0.1787]
bas 49, expnt(s) = [26.63   5.948  1.742]
bas 50, expnt(s) = [0.555]
bas 51, expnt(s) = [0.1725]
bas 52, expnt(s) = [1.654]
bas 53, expnt(s) = [0.469]
bas 54, expnt(s) = [1.093]
bas 55, expnt(s) = [5.952]
bas 56, expnt(s) = [16.201]
bas 57, expnt(s) = [11.871]
bas 58, expnt(s) = [44.849]
bas 59, expnt(s) = [14.2]
CPU time:         1.16
lattice vectors  a1 [5.877047826, 0.000000000, 0.000000000]
                 a2 [-2.938523913, 5.089672716, 0.000000000]
                 a3 [0.000000000, 0.000000000, 9.410835425]
dimension = 3
low_dim_ft_type = None
Cell volume = 281.499
rcut = 32.79019015615983 (nimgs = [7 7 4])
lattice sum = 1229 cells
precision = 1e-08
pseudo = None
ke_cutoff = 433261.4263657037
    = [1509 1509 2789] mesh (6350778909 PWs)


******** <class 'pyscf.pbc.scf.khf.KRHF'> ********
method = KRHF-KSCF-RHF-SCF-RHF
initial guess = minao
damping factor = 0
level_shift factor = 0
DIIS = <class 'pyscf.scf.diis.CDIIS'>
diis_start_cycle = 1
diis_space = 8
SCF conv_tol = 1e-07
SCF conv_tol_grad = None
SCF max_cycles = 50
direct_scf = True
direct_scf_tol = 1e-13
chkfile to save SCF result = data/aln_ccpcvtz_k3_Al_2p_nvir_act39.chk
max_memory 700000 MB (current use 114 MB)


******** PBC SCF flags ********
N kpts = 27
kpts = [[0.         0.         0.        ]
 [0.         0.         0.22255145]
 [0.         0.         0.44510291]
 [0.         0.41149897 0.        ]
 [0.         0.41149897 0.22255145]
 [0.         0.41149897 0.44510291]
 [0.         0.82299795 0.        ]
 [0.         0.82299795 0.22255145]
 [0.         0.82299795 0.44510291]
 [0.35636857 0.20574949 0.        ]
 [0.35636857 0.20574949 0.22255145]
 [0.35636857 0.20574949 0.44510291]
 [0.35636857 0.61724846 0.        ]
 [0.35636857 0.61724846 0.22255145]
 [0.35636857 0.61724846 0.44510291]
 [0.35636857 1.02874744 0.        ]
 [0.35636857 1.02874744 0.22255145]
 [0.35636857 1.02874744 0.44510291]
 [0.71273713 0.41149897 0.        ]
 [0.71273713 0.41149897 0.22255145]
 [0.71273713 0.41149897 0.44510291]
 [0.71273713 0.82299795 0.        ]
 [0.71273713 0.82299795 0.22255145]
 [0.71273713 0.82299795 0.44510291]
 [0.71273713 1.23449692 0.        ]
 [0.71273713 1.23449692 0.22255145]
 [0.71273713 1.23449692 0.44510291]]
Exchange divergence treatment (exxdiv) = ewald
Monkhorst pack size [3 3 3] ew_eta 0.8844880366313383 ew_cut 7.945196698079207
Ewald components = 7.43877040383099e-109, -0.499283113992858, 0.434708743263287
    madelung (= occupied orbital energy shift) = 0.12914874145914124
    Total energy shift due to Ewald probe charge = -1/2 * Nelec*madelung = -2.58297482918
DF object = <pyscf.pbc.df.df.GDF object at 0x155535b7e5f0>
Set gradient conv threshold to 0.000316228
Big error detected in the electron number of initial guess density matrix (Ne/cell = 39.9963)!
  This can cause huge error in Fock matrix and lead to instability in SCF for low-dimensional systems.
  DM is normalized wrt the number of electrons 40.0
    CPU time for vnuc pass1: analytic int   3597.72 sec, wall time    113.66 sec
    CPU time for contracting Vnuc [0:896]    295.83 sec, wall time     10.19 sec
    CPU time for contracting Vnuc    295.83 sec, wall time     10.19 sec
    CPU time for get_nuc   3894.48 sec, wall time    123.88 sec


******** <class 'pyscf.pbc.df.df.GDF'> ********
mesh = [9, 9, 15] (1215 PWs)
auxbasis = None
eta = 0.2
exp_to_discard = None
_cderi_to_save = data/aln_ccpcvtz_k3_Al_2p_nvir_act39_cderi.h5
len(kpts) = 27
    kpts = [[0.         0.         0.        ]
 [0.         0.         0.22255145]
 [0.         0.         0.44510291]
 [0.         0.41149897 0.        ]
 [0.         0.41149897 0.22255145]
 [0.         0.41149897 0.44510291]
 [0.         0.82299795 0.        ]
 [0.         0.82299795 0.22255145]
 [0.         0.82299795 0.44510291]
 [0.35636857 0.20574949 0.        ]
 [0.35636857 0.20574949 0.22255145]
 [0.35636857 0.20574949 0.44510291]
 [0.35636857 0.61724846 0.        ]
 [0.35636857 0.61724846 0.22255145]
 [0.35636857 0.61724846 0.44510291]
 [0.35636857 1.02874744 0.        ]
 [0.35636857 1.02874744 0.22255145]
 [0.35636857 1.02874744 0.44510291]
 [0.71273713 0.41149897 0.        ]
 [0.71273713 0.41149897 0.22255145]
 [0.71273713 0.41149897 0.44510291]
 [0.71273713 0.82299795 0.        ]
 [0.71273713 0.82299795 0.22255145]
 [0.71273713 0.82299795 0.44510291]
 [0.71273713 1.23449692 0.        ]
 [0.71273713 1.23449692 0.22255145]
 [0.71273713 1.23449692 0.44510291]]
Even tempered Gaussians are generated as DF auxbasis for  Al N
  ETB auxbasis for Al  [[0, [7405.568, 1]], [0, [3702.784, 1]], [0, [1851.392, 1]], [0, [925.696, 1]], [0, [462.848, 1]], [0, [231.424, 1]], [0, [115.712, 1]], [0, [57.856, 1]], [0, [28.928, 1]], [0, [14.464, 1]], [0, [7.232, 1]], [0, [3.616, 1]], [0, [1.808, 1]], [0, [0.904, 1]], [0, [0.452, 1]], [0, [0.226, 1]], [0, [0.113, 1]], [1, [1836.0916571679966, 1]], [1, [918.0458285839983, 1]], [1, [459.02291429199914, 1]], [1, [229.51145714599957, 1]], [1, [114.75572857299979, 1]], [1, [57.37786428649989, 1]], [1, [28.688932143249946, 1]], [1, [14.344466071624973, 1]], [1, [7.172233035812487, 1]], [1, [3.5861165179062433, 1]], [1, [1.7930582589531217, 1]], [1, [0.8965291294765608, 1]], [1, [0.4482645647382804, 1]], [1, [0.2241322823691402, 1]], [1, [0.1120661411845701, 1]], [2, [455.22944, 1]], [2, [227.61472, 1]], [2, [113.80736, 1]], [2, [56.90368, 1]], [2, [28.45184, 1]], [2, [14.22592, 1]], [2, [7.11296, 1]], [2, [3.55648, 1]], [2, [1.77824, 1]], [2, [0.88912, 1]], [2, [0.44456, 1]], [2, [0.22228, 1]], [2, [0.11114, 1]], [3, [79.69542739003286, 1]], [3, [39.84771369501643, 1]], [3, [19.923856847508215, 1]], [3, [9.961928423754108, 1]], [3, [4.980964211877054, 1]], [3, [2.490482105938527, 1]], [3, [1.2452410529692635, 1]], [3, [0.6226205264846317, 1]], [3, [0.31131026324231587, 1]], [3, [0.15565513162115793, 1]], [4, [13.952, 1]], [4, [6.976, 1]], [4, [3.488, 1]], [4, [1.744, 1]], [4, [0.872, 1]], [4, [0.436, 1]], [4, [0.218, 1]]]
  ETB auxbasis for N  [[0, [2927.8208, 1]], [0, [1463.9104, 1]], [0, [731.9552, 1]], [0, [365.9776, 1]], [0, [182.9888, 1]], [0, [91.4944, 1]], [0, [45.7472, 1]], [0, [22.8736, 1]], [0, [11.4368, 1]], [0, [5.7184, 1]], [0, [2.8592, 1]], [0, [1.4296, 1]], [0, [0.7148, 1]], [0, [0.3574, 1]], [1, [359.572755541907, 1]], [1, [179.7863777709535, 1]], [1, [89.89318888547675, 1]], [1, [44.94659444273837, 1]], [1, [22.473297221369187, 1]], [1, [11.236648610684593, 1]], [1, [5.618324305342297, 1]], [1, [2.8091621526711483, 1]], [1, [1.4045810763355742, 1]], [1, [0.7022905381677871, 1]], [1, [0.35114526908389354, 1]], [2, [176.64, 1]], [2, [88.32, 1]], [2, [44.16, 1]], [2, [22.08, 1]], [2, [11.04, 1]], [2, [5.52, 1]], [2, [2.76, 1]], [2, [1.38, 1]], [2, [0.69, 1]], [2, [0.345, 1]], [3, [36.40750691821674, 1]], [3, [18.20375345910837, 1]], [3, [9.101876729554185, 1]], [3, [4.5509383647770925, 1]], [3, [2.2754691823885462, 1]], [3, [1.1377345911942731, 1]], [3, [0.5688672955971366, 1]], [4, [15.008, 1]], [4, [7.504, 1]], [4, [3.752, 1]], [4, [1.876, 1]], [4, [0.938, 1]]]
num shells = 218, num cGTOs = 902
Drop 0 primitive fitting functions
make aux basis, num shells = 218, num cGTOs = 902
auxcell.rcut 17.24916021658648
make compensating basis, num shells = 20, num cGTOs = 100
chgcell.rcut 11.482117703874595
    CPU time for 3c2e 259114.16 sec, wall time   8534.59 sec
Num uniq kpts 63
uniq_kpts [[ 0.          0.          0.        ]
 [ 0.          0.         -0.22255145]
 [ 0.          0.         -0.44510291]
 [ 0.         -0.41149897  0.        ]
 [ 0.         -0.41149897  0.22255145]
 [ 0.         -0.41149897  0.44510291]
 [ 0.         -0.41149897 -0.22255145]
 [ 0.         -0.41149897 -0.44510291]
 [ 0.         -0.82299795  0.        ]
 [ 0.         -0.82299795  0.22255145]
 [ 0.         -0.82299795  0.44510291]
 [ 0.         -0.82299795 -0.22255145]
 [ 0.         -0.82299795 -0.44510291]
 [-0.35636857 -0.20574949  0.        ]
 [-0.35636857 -0.20574949  0.22255145]
 [-0.35636857 -0.20574949  0.44510291]
 [-0.35636857  0.20574949  0.        ]
 [-0.35636857  0.20574949  0.22255145]
 [-0.35636857  0.20574949  0.44510291]
 [-0.35636857  0.61724846  0.        ]
 [-0.35636857  0.61724846  0.22255145]
 [-0.35636857  0.61724846  0.44510291]
 [-0.35636857 -0.20574949 -0.22255145]
 [-0.35636857  0.20574949 -0.22255145]
 [-0.35636857  0.61724846 -0.22255145]
 [-0.35636857 -0.20574949 -0.44510291]
 [-0.35636857  0.20574949 -0.44510291]
 [-0.35636857  0.61724846 -0.44510291]
 [-0.35636857 -0.61724846  0.        ]
 [-0.35636857 -0.61724846  0.22255145]
 [-0.35636857 -0.61724846  0.44510291]
 [-0.35636857 -0.61724846 -0.22255145]
 [-0.35636857 -0.61724846 -0.44510291]
 [-0.35636857 -1.02874744  0.        ]
 [-0.35636857 -1.02874744  0.22255145]
 [-0.35636857 -1.02874744  0.44510291]
 [-0.35636857 -1.02874744 -0.22255145]
 [-0.35636857 -1.02874744 -0.44510291]
 [-0.71273713 -0.41149897  0.        ]
 [-0.71273713 -0.41149897  0.22255145]
 [-0.71273713 -0.41149897  0.44510291]
 [-0.71273713  0.          0.        ]
 [-0.71273713  0.          0.22255145]
 [-0.71273713  0.          0.44510291]
 [-0.71273713  0.41149897  0.        ]
 [-0.71273713  0.41149897  0.22255145]
 [-0.71273713  0.41149897  0.44510291]
 [-0.71273713 -0.41149897 -0.22255145]
 [-0.71273713  0.         -0.22255145]
 [-0.71273713  0.41149897 -0.22255145]
 [-0.71273713 -0.41149897 -0.44510291]
 [-0.71273713  0.         -0.44510291]
 [-0.71273713  0.41149897 -0.44510291]
 [-0.71273713 -0.82299795  0.        ]
 [-0.71273713 -0.82299795  0.22255145]
 [-0.71273713 -0.82299795  0.44510291]
 [-0.71273713 -0.82299795 -0.22255145]
 [-0.71273713 -0.82299795 -0.44510291]
 [-0.71273713 -1.23449692  0.        ]
 [-0.71273713 -1.23449692  0.22255145]
 [-0.71273713 -1.23449692  0.44510291]
 [-0.71273713 -1.23449692 -0.22255145]
 [-0.71273713 -1.23449692 -0.44510291]]
max_memory 697828.841472 (MB)  blocksize 17410899
Cholesky decomposition for j2c at kpt 0
Symmetry pattern (k - [0. 0. 0.])*a= 2n pi
    make_kpt for uniq_kptji_ids [0]
kpt = [0. 0. 0.]
adapted_ji_idx = [  0   2   5   9  14  20  27  35  44  54  65  77  90 104 119 135 152 170
 189 209 230 252 275 299 324 350 377]
memory = 1167.781888
int3c2e [1/1], AO [0:60], ncol = 20910
Symmetry pattern (k + [0. 0. 0.])*a= 2n pi
    make_kpt for [0]
Cholesky decomposition for j2c at kpt 1
Symmetry pattern (k - [ 0.          0.         -0.22255145])*a= 2n pi
    make_kpt for uniq_kptji_ids [1]
kpt = [ 0.          0.         -0.22255145]
adapted_ji_idx = [  1   4  13  19  34  43  64  76 103 118 151 169 208 229 274 298 349 376]
memory = 1183.90784
int3c2e [1/1], AO [0:60], ncol = 41616
Symmetry pattern (k + [ 0.          0.         -0.22255145])*a= 2n pi
    make_kpt for [2]
kpt = [ 0.          0.         -0.44510291]
adapted_ji_idx = [  3  18  42  75 117 168 228 297 375]
memory = 1216.630784
int3c2e [1/1], AO [0:60], ncol = 41616
Cholesky decomposition for j2c at kpt 3
DF metric linear dependency for kpt 3
cond = 7.485e+17, drop 48 bfns
Symmetry pattern (k - [ 0.         -0.41149897  0.        ])*a= 2n pi
    make_kpt for uniq_kptji_ids [3]
kpt = [ 0.         -0.41149897  0.        ]
adapted_ji_idx = [  6  11  17  24  32  41  87 101 116 132 149 167 249 272 296 321 347 374]
memory = 1250.57024
int3c2e [1/1], AO [0:60], ncol = 41616
Symmetry pattern (k + [ 0.         -0.41149897  0.        ])*a= 2n pi
    make_kpt for [8]
kpt = [ 0.         -0.82299795  0.        ]
adapted_ji_idx = [ 21  29  38 129 146 164 318 344 371]
memory = 1246.773248
int3c2e [1/1], AO [0:60], ncol = 41616
Cholesky decomposition for j2c at kpt 4
DF metric linear dependency for kpt 4
cond = 1.081e+18, drop 48 bfns
Symmetry pattern (k - [ 0.         -0.41149897  0.22255145])*a= 2n pi
    make_kpt for uniq_kptji_ids [4 7]
kpt = [ 0.         -0.41149897  0.22255145]
adapted_ji_idx = [  7  12  25  33  88 102 133 150 250 273 322 348]
memory = 1745.076224
int3c2e [1/1], AO [0:60], ncol = 41616
kpt = [ 0.         -0.41149897 -0.44510291]
adapted_ji_idx = [ 15  39 114 165 294 372]
memory = 1830.137856
int3c2e [1/1], AO [0:60], ncol = 41616
Symmetry pattern (k + [ 0.         -0.41149897  0.22255145])*a= 2n pi
    make_kpt for [10 11]
kpt = [ 0.         -0.82299795  0.44510291]
adapted_ji_idx = [ 23 131 320]
memory = 1844.629504
int3c2e [1/1], AO [0:60], ncol = 41616
kpt = [ 0.         -0.82299795 -0.22255145]
adapted_ji_idx = [ 28  37 145 163 343 370]
memory = 1802.305536
int3c2e [1/1], AO [0:60], ncol = 41616
Cholesky decomposition for j2c at kpt 5
DF metric linear dependency for kpt 5
cond = 8.134e+17, drop 48 bfns
Symmetry pattern (k - [ 0.         -0.41149897  0.44510291])*a= 2n pi
    make_kpt for uniq_kptji_ids [5 6]
kpt = [ 0.         -0.41149897  0.44510291]
adapted_ji_idx = [  8  26  89 134 251 323]
memory = 1845.018624
int3c2e [1/1], AO [0:60], ncol = 41616
kpt = [ 0.         -0.41149897 -0.22255145]
adapted_ji_idx = [ 10  16  31  40 100 115 148 166 271 295 346 373]
memory = 1844.453376
int3c2e [1/1], AO [0:60], ncol = 41616
Symmetry pattern (k + [ 0.         -0.41149897  0.44510291])*a= 2n pi
    make_kpt for [ 9 12]
kpt = [ 0.         -0.82299795  0.22255145]
adapted_ji_idx = [ 22  30 130 147 319 345]
memory = 1850.32704
int3c2e [1/1], AO [0:60], ncol = 41616
kpt = [ 0.         -0.82299795 -0.44510291]
adapted_ji_idx = [ 36 162 369]
memory = 1785.114624
int3c2e [1/1], AO [0:60], ncol = 41616
Cholesky decomposition for j2c at kpt 13
Symmetry pattern (k - [-0.35636857 -0.20574949  0.        ])*a= 2n pi
    make_kpt for uniq_kptji_ids [13]
kpt = [-0.35636857 -0.20574949  0.        ]
adapted_ji_idx = [ 45  56  68  81  95 110 126 143 161 180 200 221 243 266 290 315 341 368]
memory = 1811.894272
int3c2e [1/1], AO [0:60], ncol = 41616
Symmetry pattern (k + [-0.35636857 -0.20574949  0.        ])*a= 2n pi
    make_kpt for [38]
kpt = [-0.71273713 -0.41149897  0.        ]
adapted_ji_idx = [171 191 212 234 257 281 306 332 359]
memory = 1833.115648
int3c2e [1/1], AO [0:60], ncol = 41616
Cholesky decomposition for j2c at kpt 14
Symmetry pattern (k - [-0.35636857 -0.20574949  0.22255145])*a= 2n pi
    make_kpt for uniq_kptji_ids [14 25]
kpt = [-0.35636857 -0.20574949  0.22255145]
adapted_ji_idx = [ 46  57  82  96 127 144 181 201 244 267 316 342]
memory = 1833.365504
int3c2e [1/1], AO [0:60], ncol = 41616
kpt = [-0.35636857 -0.20574949 -0.44510291]
adapted_ji_idx = [ 66 108 159 219 288 366]
memory = 1833.304064
int3c2e [1/1], AO [0:60], ncol = 41616
Symmetry pattern (k + [-0.35636857 -0.20574949  0.22255145])*a= 2n pi
    make_kpt for [40 47]
kpt = [-0.71273713 -0.41149897  0.44510291]
adapted_ji_idx = [173 236 308]
memory = 1833.275392
int3c2e [1/1], AO [0:60], ncol = 41616
kpt = [-0.71273713 -0.41149897 -0.22255145]
adapted_ji_idx = [190 211 256 280 331 358]
memory = 1807.249408
int3c2e [1/1], AO [0:60], ncol = 41616
Cholesky decomposition for j2c at kpt 15
Symmetry pattern (k - [-0.35636857 -0.20574949  0.44510291])*a= 2n pi
    make_kpt for uniq_kptji_ids [15 22]
kpt = [-0.35636857 -0.20574949  0.44510291]
adapted_ji_idx = [ 47  83 128 182 245 317]
memory = 1833.00096
int3c2e [1/1], AO [0:60], ncol = 41616
kpt = [-0.35636857 -0.20574949 -0.22255145]
adapted_ji_idx = [ 55  67  94 109 142 160 199 220 265 289 340 367]
memory = 1854.984192
int3c2e [1/1], AO [0:60], ncol = 41616
Symmetry pattern (k + [-0.35636857 -0.20574949  0.44510291])*a= 2n pi
    make_kpt for [39 50]
kpt = [-0.71273713 -0.41149897  0.22255145]
adapted_ji_idx = [172 192 235 258 307 333]
memory = 1833.406464
int3c2e [1/1], AO [0:60], ncol = 41616
kpt = [-0.71273713 -0.41149897 -0.44510291]
adapted_ji_idx = [210 279 357]
memory = 1807.29856
int3c2e [1/1], AO [0:60], ncol = 41616
Cholesky decomposition for j2c at kpt 16
Symmetry pattern (k - [-0.35636857  0.20574949  0.        ])*a= 2n pi
    make_kpt for uniq_kptji_ids [16 33]
kpt = [-0.35636857  0.20574949  0.        ]
adapted_ji_idx = [ 48  59  71  84  98 113 183 203 224 246 269 293]
memory = 1833.037824
int3c2e [1/1], AO [0:60], ncol = 41616
kpt = [-0.35636857 -1.02874744  0.        ]
adapted_ji_idx = [120 137 155 309 335 362]
memory = 1833.414656
int3c2e [1/1], AO [0:60], ncol = 41616
Symmetry pattern (k + [-0.35636857  0.20574949  0.        ])*a= 2n pi
    make_kpt for [44 53]
kpt = [-0.71273713  0.41149897  0.        ]
adapted_ji_idx = [177 197 218]
memory = 1833.414656
int3c2e [1/1], AO [0:60], ncol = 41616
kpt = [-0.71273713 -0.82299795  0.        ]
adapted_ji_idx = [231 254 278 303 329 356]
memory = 1807.323136
int3c2e [1/1], AO [0:60], ncol = 41616
Cholesky decomposition for j2c at kpt 17
Symmetry pattern (k - [-0.35636857  0.20574949  0.22255145])*a= 2n pi
    make_kpt for uniq_kptji_ids [17 26 34 37]
kpt = [-0.35636857  0.20574949  0.22255145]
adapted_ji_idx = [ 49  60  85  99 184 204 247 270]
memory = 1832.91904
int3c2e [1/1], AO [0:60], ncol = 41616
kpt = [-0.35636857  0.20574949 -0.44510291]
adapted_ji_idx = [ 69 111 222 291]
memory = 1833.918464
int3c2e [1/1], AO [0:60], ncol = 41616
kpt = [-0.35636857 -1.02874744  0.22255145]
adapted_ji_idx = [121 138 310 336]
memory = 1833.918464
int3c2e [1/1], AO [0:60], ncol = 41616
kpt = [-0.35636857 -1.02874744 -0.44510291]
adapted_ji_idx = [153 360]
memory = 1833.705472
int3c2e [1/1], AO [0:60], ncol = 41616
Symmetry pattern (k + [-0.35636857  0.20574949  0.22255145])*a= 2n pi
    make_kpt for [46 49 55 56]
kpt = [-0.71273713  0.41149897  0.44510291]
adapted_ji_idx = [179]
memory = 1833.918464
int3c2e [1/1], AO [0:60], ncol = 41616
kpt = [-0.71273713  0.41149897 -0.22255145]
adapted_ji_idx = [196 217]
memory = 1807.106048
int3c2e [1/1], AO [0:60], ncol = 41616
kpt = [-0.71273713 -0.82299795  0.44510291]
adapted_ji_idx = [233 305]
memory = 1807.42144
int3c2e [1/1], AO [0:60], ncol = 41616
kpt = [-0.71273713 -0.82299795 -0.22255145]
adapted_ji_idx = [253 277 328 355]
memory = 1807.224832
int3c2e [1/1], AO [0:60], ncol = 41616
Cholesky decomposition for j2c at kpt 18
Symmetry pattern (k - [-0.35636857  0.20574949  0.44510291])*a= 2n pi
    make_kpt for uniq_kptji_ids [18 23 35 36]
kpt = [-0.35636857  0.20574949  0.44510291]
adapted_ji_idx = [ 50  86 185 248]
memory = 1833.283584
int3c2e [1/1], AO [0:60], ncol = 41616
kpt = [-0.35636857  0.20574949 -0.22255145]
adapted_ji_idx = [ 58  70  97 112 202 223 268 292]
memory = 1833.832448
int3c2e [1/1], AO [0:60], ncol = 41616
kpt = [-0.35636857 -1.02874744  0.44510291]
adapted_ji_idx = [122 311]
memory = 1833.811968
int3c2e [1/1], AO [0:60], ncol = 41616
kpt = [-0.35636857 -1.02874744 -0.22255145]
adapted_ji_idx = [136 154 334 361]
memory = 1833.455616
int3c2e [1/1], AO [0:60], ncol = 41616
Symmetry pattern (k + [-0.35636857  0.20574949  0.44510291])*a= 2n pi
    make_kpt for [45 52 54 57]
kpt = [-0.71273713  0.41149897  0.22255145]
adapted_ji_idx = [178 198]
memory = 1833.013248
int3c2e [1/1], AO [0:60], ncol = 41616
kpt = [-0.71273713  0.41149897 -0.44510291]
adapted_ji_idx = [216]
memory = 1807.54432
int3c2e [1/1], AO [0:60], ncol = 41616
kpt = [-0.71273713 -0.82299795  0.22255145]
adapted_ji_idx = [232 255 304 330]
memory = 1807.089664
int3c2e [1/1], AO [0:60], ncol = 41616
kpt = [-0.71273713 -0.82299795 -0.44510291]
adapted_ji_idx = [276 354]
memory = 1807.290368
int3c2e [1/1], AO [0:60], ncol = 41616
Cholesky decomposition for j2c at kpt 19
DF metric linear dependency for kpt 19
cond = 1.348e+18, drop 49 bfns
Symmetry pattern (k - [-0.35636857  0.61724846  0.        ])*a= 2n pi
    make_kpt for uniq_kptji_ids [19 28]
kpt = [-0.35636857  0.61724846  0.        ]
adapted_ji_idx = [ 51  62  74 186 206 227]
memory = 1872.474112
int3c2e [1/1], AO [0:60], ncol = 41616
kpt = [-0.35636857 -0.61724846  0.        ]
adapted_ji_idx = [ 78  92 107 123 140 158 240 263 287 312 338 365]
memory = 1871.44192
int3c2e [1/1], AO [0:60], ncol = 41616
Symmetry pattern (k + [-0.35636857  0.61724846  0.        ])*a= 2n pi
    make_kpt for [41 58]
kpt = [-0.71273713  0.          0.        ]
adapted_ji_idx = [174 194 215 237 260 284]
memory = 1872.24064
int3c2e [1/1], AO [0:60], ncol = 41616
kpt = [-0.71273713 -1.23449692  0.        ]
adapted_ji_idx = [300 326 353]
memory = 1806.475264
int3c2e [1/1], AO [0:60], ncol = 41616
Cholesky decomposition for j2c at kpt 20
Symmetry pattern (k - [-0.35636857  0.61724846  0.22255145])*a= 2n pi
    make_kpt for uniq_kptji_ids [20 27 29 32]
kpt = [-0.35636857  0.61724846  0.22255145]
adapted_ji_idx = [ 52  63 187 207]
memory = 1832.849408
int3c2e [1/1], AO [0:60], ncol = 41616
kpt = [-0.35636857  0.61724846 -0.44510291]
adapted_ji_idx = [ 72 225]
memory = 1833.00096
int3c2e [1/1], AO [0:60], ncol = 41616
kpt = [-0.35636857 -0.61724846  0.22255145]
adapted_ji_idx = [ 79  93 124 141 241 264 313 339]
memory = 1833.242624
int3c2e [1/1], AO [0:60], ncol = 41616
kpt = [-0.35636857 -0.61724846 -0.44510291]
adapted_ji_idx = [105 156 285 363]
memory = 1833.824256
int3c2e [1/1], AO [0:60], ncol = 41616
Symmetry pattern (k + [-0.35636857  0.61724846  0.22255145])*a= 2n pi
    make_kpt for [43 48 60 61]
kpt = [-0.71273713  0.          0.44510291]
adapted_ji_idx = [176 239]
memory = 1833.324544
int3c2e [1/1], AO [0:60], ncol = 41616
kpt = [-0.71273713  0.         -0.22255145]
adapted_ji_idx = [193 214 259 283]
memory = 1808.367616
int3c2e [1/1], AO [0:60], ncol = 41616
kpt = [-0.71273713 -1.23449692  0.44510291]
adapted_ji_idx = [302]
memory = 1807.618048
int3c2e [1/1], AO [0:60], ncol = 41616
kpt = [-0.71273713 -1.23449692 -0.22255145]
adapted_ji_idx = [325 352]
memory = 1807.945728
int3c2e [1/1], AO [0:60], ncol = 41616
Cholesky decomposition for j2c at kpt 21
Symmetry pattern (k - [-0.35636857  0.61724846  0.44510291])*a= 2n pi
    make_kpt for uniq_kptji_ids [21 24 30 31]
kpt = [-0.35636857  0.61724846  0.44510291]
adapted_ji_idx = [ 53 188]
memory = 1834.078208
int3c2e [1/1], AO [0:60], ncol = 41616
kpt = [-0.35636857  0.61724846 -0.22255145]
adapted_ji_idx = [ 61  73 205 226]
memory = 1834.033152
int3c2e [1/1], AO [0:60], ncol = 41616
kpt = [-0.35636857 -0.61724846  0.44510291]
adapted_ji_idx = [ 80 125 242 314]
memory = 1834.532864
int3c2e [1/1], AO [0:60], ncol = 41616
kpt = [-0.35636857 -0.61724846 -0.22255145]
adapted_ji_idx = [ 91 106 139 157 262 286 337 364]
memory = 1834.381312
int3c2e [1/1], AO [0:60], ncol = 41616
Symmetry pattern (k + [-0.35636857  0.61724846  0.44510291])*a= 2n pi
    make_kpt for [42 51 59 62]
kpt = [-0.71273713  0.          0.22255145]
adapted_ji_idx = [175 195 238 261]
memory = 1834.553344
int3c2e [1/1], AO [0:60], ncol = 41616
kpt = [-0.71273713  0.         -0.44510291]
adapted_ji_idx = [213 282]
memory = 1807.867904
int3c2e [1/1], AO [0:60], ncol = 41616
kpt = [-0.71273713 -1.23449692  0.22255145]
adapted_ji_idx = [301 327]
memory = 1807.331328
int3c2e [1/1], AO [0:60], ncol = 41616
kpt = [-0.71273713 -1.23449692 -0.44510291]
adapted_ji_idx = [351]
memory = 1807.949824
int3c2e [1/1], AO [0:60], ncol = 41616
    CPU time for j3c 302831.02 sec, wall time  11064.95 sec
    CPU time for Init get_k_kpts 302831.75 sec, wall time  11064.97 sec
    CPU time for get_k_kpts: make_kpt ki>=kj (0,*)     20.25 sec, wall time      0.72 sec
    CPU time for get_k_kpts: make_kpt ki>=kj (1,*)     53.28 sec, wall time      1.74 sec
    CPU time for get_k_kpts: make_kpt ki>=kj (2,*)     80.48 sec, wall time      2.66 sec
    CPU time for get_k_kpts: make_kpt ki>=kj (3,*)    101.53 sec, wall time      3.35 sec
    CPU time for get_k_kpts: make_kpt ki>=kj (4,*)    132.00 sec, wall time      4.46 sec
    CPU time for get_k_kpts: make_kpt ki>=kj (5,*)    169.17 sec, wall time      5.64 sec
    CPU time for get_k_kpts: make_kpt ki>=kj (6,*)    191.10 sec, wall time      6.36 sec
    CPU time for get_k_kpts: make_kpt ki>=kj (7,*)    217.57 sec, wall time      7.27 sec
    CPU time for get_k_kpts: make_kpt ki>=kj (8,*)    248.78 sec, wall time      8.31 sec
    CPU time for get_k_kpts: make_kpt ki>=kj (9,*)    280.06 sec, wall time      9.38 sec
    CPU time for get_k_kpts: make_kpt ki>=kj (10,*)    305.18 sec, wall time     10.26 sec
    CPU time for get_k_kpts: make_kpt ki>=kj (11,*)    341.19 sec, wall time     11.37 sec
    CPU time for get_k_kpts: make_kpt ki>=kj (12,*)    350.11 sec, wall time     11.70 sec
    CPU time for get_k_kpts: make_kpt ki>=kj (13,*)    383.50 sec, wall time     12.91 sec
    CPU time for get_k_kpts: make_kpt ki>=kj (14,*)    408.51 sec, wall time     13.66 sec
    CPU time for get_k_kpts: make_kpt ki>=kj (15,*)    437.46 sec, wall time     14.71 sec
    CPU time for get_k_kpts: make_kpt ki>=kj (16,*)    466.43 sec, wall time     15.78 sec
    CPU time for get_k_kpts: make_kpt ki>=kj (17,*)    481.84 sec, wall time     16.17 sec
    CPU time for get_k_kpts: make_kpt ki>=kj (18,*)    520.21 sec, wall time     17.40 sec
    CPU time for get_k_kpts: make_kpt ki>=kj (19,*)    542.79 sec, wall time     18.14 sec
    CPU time for get_k_kpts: make_kpt ki>=kj (20,*)    571.44 sec, wall time     19.20 sec
    CPU time for get_k_kpts: make_kpt ki>=kj (21,*)    608.75 sec, wall time     20.39 sec
    CPU time for get_k_kpts: make_kpt ki>=kj (22,*)    619.67 sec, wall time     20.97 sec
    CPU time for get_k_kpts: make_kpt ki>=kj (23,*)    656.90 sec, wall time     22.13 sec
    CPU time for get_k_kpts: make_kpt ki>=kj (24,*)    667.46 sec, wall time     22.41 sec
    CPU time for get_k_kpts: make_kpt ki>=kj (25,*)    699.79 sec, wall time     23.45 sec
    CPU time for get_k_kpts: make_kpt ki>=kj (26,*)    708.22 sec, wall time     23.82 sec
Monkhorst pack size [3 3 3] ew_eta 0.8844880366313383 ew_cut 7.945196698079207
Ewald components = 7.43877040383099e-109, -0.499283113992858, 0.434708743263287
    CPU time for get_j pass 1    363.95 sec, wall time     11.51 sec
    CPU time for get_j pass 2     12.20 sec, wall time      8.00 sec
    CPU time for vj and vk 313476.83 sec, wall time  11429.04 sec
Ewald components = 1.30435514859409e-35, -627.49757153652, 488.979720419325
E1 = (-568.777895228828-2.8880961580958207e-14j)  E_coul = (112.33914435755446+2.151789531953906e-15j)
init E= -594.956601988469
cond(S) = [1.82365242e+08 2.65893770e+08 2.65893769e+08 6.28930927e+08
 1.46985925e+08 1.46985926e+08 6.28930929e+08 1.46985925e+08
 1.46985925e+08 6.28930928e+08 1.46985927e+08 1.46985926e+08
 2.09028287e+07 9.13689609e+07 9.13689617e+07 6.28930898e+08
 1.46985925e+08 1.46985924e+08 6.28930917e+08 1.46985927e+08
 1.46985927e+08 6.28930883e+08 1.46985922e+08 1.46985922e+08
 2.09028287e+07 9.13689617e+07 9.13689620e+07]
    CPU time for initialize scf 317391.08 sec, wall time  11554.40 sec
HOMO = 0.292561247326  LUMO = 0.429269581885
     k-point                  mo_energy
   0 ( 0.000  0.000  0.000)   [-57.79663811 -57.79650924 -15.05810863 -15.05495673  -4.2911627
  -4.27404628  -2.5711718   -2.56656114  -2.56651203  -2.56599658
  -2.56593878  -2.56581296  -1.40916741  -0.72838613  -0.16308275
   0.2497925    0.24994973   0.28453012   0.28469951   0.29256125] [  0.42926958   0.66305868   0.87258725   0.95423445   0.95440235
   1.03553269   1.03966947   1.03968145   1.09858244   1.09864438
   1.10705945   1.20874994   1.20880983   1.28637265   1.41874553
   1.45081795   1.45082081   1.49644488   1.62450025   1.62450601
   1.70569928   1.77066559   1.77076026   1.80961798   1.89148552
   1.89152431   1.9982847    2.0059404    2.0059653    2.07497143
   2.07754875   2.07756913   2.1521819    2.22045773   2.32432575
   2.32432584   2.42928481   2.42928693   2.47214701   2.61935992
   2.6432706    2.68459637   2.68462207   2.73061034   2.73061365
   2.77934105   2.77937953   2.79661275   2.81655368   2.81657024
   3.01875271   3.03017905   3.03019999   3.08228598   3.08235086
   3.08318475   3.11738136   3.11744957   3.14315775   3.2073606
   3.20737638   3.23712275   3.37036338   3.37037115   3.4130644
   3.41309205   3.41548106   3.48069522   4.03750413   4.14938113
   4.17515992   4.1751686    4.39345986   4.64684316   4.6872625
   4.68726491   4.86508689   4.87013204   4.87016092   4.93206903
   5.03034796   5.03039466   5.04952335   5.11826568   5.11832997
   5.21576873   5.25526997   5.31692726   5.31695358   5.376639
   5.4676498    5.46767033   5.52859871   5.5286477    5.86131324
   6.05834431   6.19240438   6.19240647   6.27245895   6.27245944
   6.29836082   6.29837574   6.40492215   6.40494137   6.42725423
   6.43255361   6.47184337   6.4718488    6.58172111   6.58174941
   6.83036495   6.83037135   6.95155842   6.97688082   7.18250984
   7.19553213   7.19553851   7.28519804   9.41844984  10.04211809
  11.22413764  11.26667294  11.26668306  11.74727734  11.74729084
  11.82427213  19.82185338  19.82185803  19.82786603  19.83000248
  19.83716232  19.83717825  19.83769493  19.83814086  19.8381514
  19.85747312  19.8574746   19.86533869  19.87102687  19.87169411
  22.06825603  22.23173373  22.23174017  22.25070785  22.25071538
  22.43372871  23.7144426   23.87824066  23.87824672  23.89909024
  23.89909073  24.02072895  24.03816495  24.03817557  24.06533539
  24.07091892  24.07093372  24.54369218  37.42184867  37.48532204
  37.48533412  37.97063902  38.08116744  38.08117826  39.85874233
  39.85874656  39.87126705  39.8712711   39.94420339  39.94421072
  39.94530587  39.95611444  39.95612289  39.97327184  47.75887324
  48.81755908 110.06981344 110.18812762 110.18813035 110.20698931
 110.20699218 110.31016551 117.96017126 119.21037634]
   1 ( 0.000  0.000  0.333)   [-5.77966361e+01 -5.77965202e+01 -1.50573248e+01 -1.50557307e+01
 -4.28655941e+00 -4.27782800e+00 -2.57049415e+00 -2.56792543e+00
 -2.56642810e+00 -2.56637846e+00 -2.56612292e+00 -2.56606567e+00
 -1.26330873e+00 -9.32768632e-01 -4.20319276e-02  1.52397068e-01
  2.58376231e-01  2.58472259e-01  2.75782284e-01  2.75849153e-01] [  0.54579294   0.64818545   0.866991     0.94019989   0.9539489
   0.95410097   0.99108553   0.99116087   1.1704507    1.17047648
   1.18042508   1.27297505   1.29589359   1.29589421   1.34505887
   1.34506332   1.48446459   1.49657569   1.49658223   1.50284001
   1.69501046   1.7923544    1.85732858   1.86763656   1.86766487
   1.90503087   1.90504849   1.96549763   2.07230703   2.07236415
   2.20801104   2.20801269   2.31903209   2.33534325   2.3353434
   2.39683999   2.3968428    2.40356823   2.40361021   2.42492927
   2.50174925   2.57420307   2.63936839   2.63939233   2.71611059
   2.75871135   2.83129517   2.83131786   2.87914497   2.87915928
   2.93004892   2.93390448   2.9339259    2.98124606   3.02288012
   3.02292421   3.13447645   3.17182786   3.17186313   3.19173636
   3.27832529   3.27834576   3.37971838   3.37972179   3.41578077
   3.4655647    3.46638401   3.46640058   3.91294911   4.25765913
   4.32932106   4.32932767   4.36938749   4.53007313   4.60962952
   4.60963375   4.82864622   4.92671664   5.0089426    5.00898707
   5.06685934   5.06690756   5.17079735   5.17084414   5.22161209
   5.26447284   5.27255545   5.27258463   5.29339462   5.34374059
   5.49352765   5.4935732    5.65372129   5.65372986   6.03621883
   6.18641915   6.18642141   6.20222215   6.24610973   6.24611224
   6.35737412   6.35740482   6.39468934   6.39469336   6.39807041
   6.41108236   6.48925261   6.4892654    6.57457083   6.57458913
   6.8157896    6.8220712    6.88914124   6.88914801   7.08223602
   7.08224278   7.15625992   7.16111282   9.91644806  10.09097621
  11.07116267  11.52962448  11.52963616  11.59542213  11.69900215
  11.69901595  19.82363631  19.82364277  19.83012656  19.83013812
  19.83160433  19.83541362  19.8377625   19.84223387  19.84224242
  19.85610314  19.85610646  19.85837196  19.86805813  19.87612069
  22.08995907  22.28616922  22.2861762   22.29635616  22.29636389
  22.50776816  23.76833702  23.849281    23.84928614  23.86014261
  23.8601449   24.01699938  24.03155395  24.04049561  24.04050656
  24.05688439  24.05689739  24.4242529   37.19120878  37.70855451
  37.84818496  37.84819641  38.06242231  38.06243323  39.85962678
  39.85963007  39.87832273  39.87832631  39.92179662  39.94036661
  39.9403735   39.9455942   39.94560204  39.94743928  48.6153208
  48.95364531 110.08996347 110.22426295 110.22426572 110.23351289
 110.23351578 110.4023481  117.91170281 118.94730852]
   2 ( 0.000  0.000  0.667)   [-5.77966361e+01 -5.77965202e+01 -1.50573248e+01 -1.50557307e+01
 -4.28655941e+00 -4.27782800e+00 -2.57049415e+00 -2.56792543e+00
 -2.56642810e+00 -2.56637846e+00 -2.56612292e+00 -2.56606567e+00
 -1.26330873e+00 -9.32768632e-01 -4.20319276e-02  1.52397068e-01
  2.58376231e-01  2.58472259e-01  2.75782284e-01  2.75849153e-01] [  0.54579294   0.64818545   0.866991     0.94019989   0.9539489
   0.95410097   0.99108553   0.99116087   1.1704507    1.17047648
   1.18042508   1.27297505   1.29589359   1.29589421   1.34505887
   1.34506332   1.48446459   1.49657569   1.49658223   1.50284
   1.69501044   1.79235439   1.85732858   1.86763656   1.86766487
   1.90503086   1.90504849   1.96549759   2.07230703   2.07236415
   2.20801104   2.20801269   2.31903198   2.33534325   2.3353434
   2.39683998   2.39684279   2.40356823   2.4036102    2.42492926
   2.50174925   2.57420307   2.63936839   2.63939233   2.71611052
   2.75871134   2.83129516   2.83131786   2.87914506   2.87915932
   2.93004892   2.93390447   2.93392583   2.9812459    3.02288012
   3.02292422   3.1344764    3.17182785   3.17186312   3.19173634
   3.2783253    3.27834577   3.37971835   3.37972171   3.41577944
   3.46556458   3.46638407   3.46640075   3.91294894   4.25765905
   4.32932106   4.32932762   4.36938721   4.53007311   4.60962955
   4.60963382   4.82864621   4.92671663   5.00894266   5.00898709
   5.06685934   5.06690756   5.17079739   5.17084415   5.22161194
   5.26447284   5.27255545   5.27258462   5.29339458   5.34374059
   5.49352775   5.49357324   5.65372117   5.65372986   6.03621813
   6.18641915   6.1864214    6.20222211   6.24610974   6.24611226
   6.35737413   6.35740484   6.39468934   6.39469334   6.39807025
   6.41108209   6.48925262   6.48926541   6.57457083   6.57458912
   6.81578943   6.82207113   6.88914124   6.88914801   7.08223604
   7.08224281   7.1562598    7.1611126    9.9164478   10.09097613
  11.0711626   11.52962445  11.52963616  11.59542208  11.69900217
  11.69901601  19.82363631  19.82364277  19.83012656  19.83013812
  19.83160433  19.83541362  19.8377625   19.84223387  19.84224242
  19.85610314  19.85610646  19.85837196  19.86805813  19.87612069
  22.08995906  22.28616922  22.28617619  22.29635617  22.29636389
  22.50776814  23.76833701  23.849281    23.84928614  23.86014261
  23.8601449   24.01699938  24.03155395  24.04049561  24.04050656
  24.05688439  24.05689739  24.42425279  37.19120877  37.7085545
  37.84818496  37.84819639  38.06242233  38.06243324  39.85962678
  39.85963007  39.87832273  39.87832631  39.92179662  39.94036661
  39.9403735   39.9455942   39.94560204  39.94743928  48.61532074
  48.9536453  110.08996347 110.22426295 110.22426572 110.23351289
 110.23351578 110.4023481  117.91170281 118.94730849]
   3 ( 0.000  0.333  0.000)   [-5.77966092e+01 -5.77964960e+01 -1.50558699e+01 -1.50543902e+01
 -4.27888095e+00 -4.27307812e+00 -2.57007109e+00 -2.56922995e+00
 -2.56834516e+00 -2.56715798e+00 -2.56631925e+00 -2.56630299e+00
 -9.77152619e-01 -6.30228364e-01 -3.36873993e-02  7.83973486e-03
  6.94668840e-02  1.93897781e-01  2.46590211e-01  2.65464519e-01] [  0.65206792   0.7272638    0.751525     0.87001636   0.95305215
   0.96331225   0.96667645   1.08792378   1.12883563   1.19451094
   1.21966794   1.29738706   1.44323028   1.4595224    1.47210236
   1.50463384   1.52630992   1.58174983   1.60021125   1.66313677
   1.68714166   1.71349139   1.7624063    1.77654643   1.7802179
   1.87737851   1.88460458   1.96988754   2.00932538   2.06034939
   2.09626309   2.16740607   2.18764825   2.22466729   2.27516492
   2.31976129   2.33963538   2.35130912   2.35517017   2.44605516
   2.53900147   2.5408559    2.59959034   2.65217506   2.66449894
   2.6935837    2.75091665   2.76629101   2.77410369   2.85894712
   2.8857986    2.91047686   2.91779348   2.96220094   2.98925854
   3.053699     3.06162147   3.14990329   3.17318178   3.21950877
   3.28635259   3.30482744   3.40820203   3.4472924    3.4749492
   3.53648565   3.62876327   3.7146738    4.18008823   4.22568944
   4.28810965   4.3582947    4.43493608   4.60007482   4.60444822
   4.76122918   4.83956711   4.87997133   4.92822141   4.94931853
   5.03145541   5.10172115   5.1074413    5.19901711   5.23829755
   5.26912798   5.37637827   5.40486018   5.41094744   5.41555678
   5.44916961   5.54328487   5.57569835   5.63069999   5.86489037
   5.96466359   6.0488475    6.12233515   6.2041078    6.22483074
   6.32912038   6.37114121   6.39530689   6.43177917   6.46639514
   6.49208474   6.56486593   6.57553508   6.62448646   6.69203368
   6.78487359   6.9113284    6.96577076   7.0749059    7.15596619
   7.23837939   7.24875681   7.44752897   9.92615322  10.24304856
  11.26789558  11.2971624   11.49523763  11.58587322  11.81456974
  11.84608771  19.81347983  19.82133997  19.82243705  19.82982158
  19.83177961  19.83240811  19.83540929  19.83768188  19.83903576
  19.84366464  19.85053432  19.85056912  19.85363183  19.85811945
  22.0085892   22.10322667  22.2687527   22.28219231  22.28510891
  22.46361476  23.64455496  23.82374853  23.84491285  23.90112406
  23.91108925  23.98577128  24.04037348  24.04378236  24.05389294
  24.08009222  24.14368374  24.59652782  37.4265139   37.47038065
  37.71442558  37.83261499  38.16550192  38.19278607  39.83347727
  39.85093072  39.85557539  39.86054632  39.93540044  39.9469443
  39.9782416   40.00353208  40.00421062  40.0263509   48.49119678
  48.82531675 110.02575229 110.08402717 110.21768549 110.23147689
 110.23410245 110.35900333 118.03748578 119.2147978 ]
   4 ( 0.000  0.333  0.333)   [-5.77966068e+01 -5.77964959e+01 -1.50554841e+01 -1.50547428e+01
 -4.27707721e+00 -4.27421143e+00 -2.57039538e+00 -2.56994008e+00
 -2.56740478e+00 -2.56695179e+00 -2.56650027e+00 -2.56647143e+00
 -8.90975450e-01 -7.17643561e-01 -6.66296756e-02 -1.24630586e-02
  1.46185014e-01  2.10292310e-01  2.43779691e-01  2.45926800e-01] [  0.63792112   0.69786067   0.81057709   0.86763039   0.92294515
   0.96136332   0.99982369   1.06506941   1.10618482   1.201238
   1.21365156   1.32142502   1.35957625   1.43353512   1.51082016
   1.5212003    1.55747856   1.58608374   1.60136294   1.64740423
   1.71947573   1.73970507   1.75344408   1.81100242   1.82391306
   1.88723954   1.89418404   1.96188499   2.01631352   2.021194
   2.09177207   2.09972166   2.17832169   2.24670377   2.25220769
   2.28708481   2.33705167   2.34809511   2.39708705   2.43754617
   2.45222849   2.51276001   2.57033673   2.5801807    2.66308388
   2.70923528   2.78170345   2.78211936   2.80175739   2.85995699
   2.86744758   2.92893399   2.93066673   2.98807464   3.01372906
   3.01713108   3.09182625   3.13776751   3.15833836   3.23402755
   3.24280886   3.32356038   3.34194798   3.44372366   3.47550718
   3.57896046   3.58063775   3.70067971   4.11786923   4.22576427
   4.29322181   4.3413286    4.46826925   4.52669186   4.56697919
   4.66573448   4.77094017   4.81652017   4.86727765   4.9483239
   5.05933631   5.14179772   5.15270981   5.20556141   5.23972053
   5.27512707   5.31234037   5.35442495   5.39538436   5.42536636
   5.5092532    5.51254627   5.58456115   5.63058564   5.82302753
   6.02999767   6.102873     6.18170657   6.21846047   6.29371697
   6.38716045   6.39971254   6.43467985   6.48747952   6.49487603
   6.51058587   6.54437146   6.59216254   6.64596447   6.69185062
   6.74447045   6.88578022   7.00666298   7.02351063   7.12233984
   7.15201886   7.21407071   7.40720693  10.05761143  10.17595314
  11.30865718  11.37870353  11.45720674  11.5266348   11.59831818
  11.60078316  19.81441671  19.81918984  19.82175689  19.82292138
  19.82499209  19.82880499  19.83726846  19.83857358  19.84177054
  19.84651998  19.84982184  19.85231803  19.85615334  19.86276041
  22.09118973  22.13413473  22.17231588  22.21452672  22.36263722
  22.49206149  23.74365376  23.81129772  23.84122284  23.89113016
  23.92392007  23.96650125  24.0373667   24.04303687  24.05624587
  24.08719343  24.14251076  24.41984569  37.44418912  37.61576036
  37.66737621  37.72571628  37.80617246  37.91163004  39.8472928
  39.86086367  39.86967719  39.87898001  39.93933591  39.95071846
  39.97973923  39.98156365  39.99836461  40.0188497   48.70615161
  48.80458285 110.08308242 110.10695464 110.13931981 110.16982162
 110.29358677 110.37489465 118.24738506 118.91797936]
   5 ( 0.000  0.333  0.667)   [-5.77966070e+01 -5.77964959e+01 -1.50554889e+01 -1.50547390e+01
 -4.27713889e+00 -4.27419241e+00 -2.57039935e+00 -2.56994741e+00
 -2.56739274e+00 -2.56694804e+00 -2.56650456e+00 -2.56648864e+00
 -8.91879358e-01 -7.16981867e-01 -6.61047290e-02 -1.29506952e-02
  1.46012134e-01  2.10331151e-01  2.43834918e-01  2.45913391e-01] [  0.63793982   0.69787953   0.81055654   0.86768998   0.92291424
   0.96129947   0.99982746   1.06506423   1.10623012   1.20120448
   1.21367126   1.32141334   1.35962794   1.43352439   1.51088351
   1.52113222   1.55743888   1.58616628   1.6012877    1.64745684
   1.71946878   1.73966084   1.75347941   1.81101637   1.82391145
   1.88723937   1.89417759   1.96187258   2.01636208   2.02117184
   2.0917996    2.09968317   2.17832965   2.24667351   2.25220954
   2.28706409   2.33709628   2.34808819   2.39706959   2.43756797
   2.45222664   2.51275321   2.57032052   2.58019283   2.66308086
   2.70927665   2.78175542   2.78210919   2.80174081   2.8599731
   2.86741174   2.9289376    2.93066338   2.98805849   3.0137123
   3.01712735   3.09182164   3.1377844    3.15837934   3.23395851
   3.24282936   3.32354441   3.34191163   3.44373848   3.47558087
   3.57890812   3.58061593   3.70071317   4.11790252   4.22575198
   4.29322106   4.34135272   4.46823782   4.52668843   4.56699085
   4.66574332   4.77096119   4.81653244   4.86724513   4.948291
   5.05931829   5.14181001   5.1526663    5.20558578   5.2397142
   5.27517698   5.31231976   5.35446303   5.39539516   5.42533481
   5.50915294   5.51255526   5.58464826   5.63056003   5.82302975
   6.03002598   6.10287467   6.181706     6.21845412   6.29373854
   6.38717846   6.39969612   6.43464698   6.48749869   6.49484879
   6.51063347   6.54435891   6.59212748   6.64598078   6.69181329
   6.7444701    6.88581259   7.00667449   7.02354688   7.12234432
   7.15199474   7.21402215   7.40723524  10.05766219  10.17591254
  11.30863856  11.37872189  11.45722399  11.52656818  11.59829904
  11.60084191  19.81443397  19.81920245  19.82173844  19.82293417
  19.82491959  19.828875    19.83720113  19.83859321  19.84183338
  19.84644864  19.8499144   19.85224323  19.85620018  19.86273026
  22.09120578  22.13406891  22.17228414  22.21459269  22.36263478
  22.49207647  23.74363391  23.81131378  23.84125729  23.89108559
  23.92399293  23.96643725  24.03738076  24.04307713  24.0562156
  24.08718146  24.14250605  24.41984598  37.44419321  37.61577752
  37.66733928  37.7257743   37.80614732  37.91161267  39.8472972
  39.86087336  39.8696124   39.87904283  39.93934228  39.95069399
  39.97970367  39.98159781  39.99833251  40.01888935  48.70615706
  48.8045772  110.08309597 110.10689467 110.13928884 110.16988159
 110.29358215 110.37491654 118.2473904  118.91797393]
   6 ( 0.000  0.667  0.000)   [-5.77966092e+01 -5.77964960e+01 -1.50558699e+01 -1.50543902e+01
 -4.27888095e+00 -4.27307812e+00 -2.57007109e+00 -2.56922995e+00
 -2.56834516e+00 -2.56715798e+00 -2.56631925e+00 -2.56630299e+00
 -9.77152619e-01 -6.30228364e-01 -3.36873993e-02  7.83973486e-03
  6.94668840e-02  1.93897781e-01  2.46590211e-01  2.65464519e-01] [  0.65206792   0.7272638    0.751525     0.87001636   0.95305215
   0.96331225   0.96667645   1.08792378   1.12883563   1.19451094
   1.21966794   1.29738706   1.44323028   1.4595224    1.47210236
   1.50463384   1.52630992   1.58174983   1.60021125   1.66313677
   1.68714166   1.71349139   1.7624063    1.77654643   1.7802179
   1.87737851   1.88460458   1.96988754   2.00932538   2.0603494
   2.09626309   2.16740607   2.18764825   2.22466729   2.27516492
   2.31976129   2.33963538   2.35130912   2.35517017   2.44605519
   2.53900148   2.54085589   2.59959033   2.65217506   2.66449895
   2.6935837    2.75091665   2.76629102   2.77410369   2.85894709
   2.8857986    2.91047686   2.91779349   2.96220093   2.98925856
   3.05369904   3.06162147   3.14990333   3.17318179   3.21950877
   3.28635258   3.30482745   3.40820203   3.44729243   3.47494918
   3.53648577   3.62876327   3.71467376   4.18008824   4.22568945
   4.28810964   4.35829475   4.43493608   4.60007481   4.60444821
   4.76122917   4.83956711   4.87997133   4.92822141   4.94931853
   5.03145541   5.10172115   5.1074413    5.1990171    5.23829756
   5.26912801   5.37637828   5.40486019   5.41094743   5.41555676
   5.4491696    5.54328486   5.57569835   5.6307       5.86489041
   5.96466361   6.0488475    6.12233518   6.20410779   6.22483075
   6.32912041   6.37114122   6.39530688   6.43177916   6.46639514
   6.49208477   6.56486595   6.57553512   6.62448648   6.69203367
   6.78487356   6.9113284    6.96577078   7.07490591   7.15596618
   7.2383794    7.24875682   7.44752897   9.92615326  10.24304858
  11.26789559  11.2971624   11.49523762  11.58587324  11.81456972
  11.8460877   19.81347983  19.82133997  19.82243705  19.82982158
  19.83177961  19.83240811  19.83540929  19.83768188  19.83903576
  19.84366464  19.85053432  19.85056912  19.85363183  19.85811945
  22.0085892   22.10322667  22.26875271  22.28219232  22.28510891
  22.46361476  23.64455496  23.82374853  23.84491285  23.90112406
  23.91108925  23.98577128  24.04037347  24.04378236  24.05389294
  24.08009222  24.14368374  24.59652782  37.4265139   37.47038065
  37.71442558  37.832615    38.16550192  38.19278606  39.83347727
  39.85093072  39.85557539  39.86054632  39.93540044  39.9469443
  39.9782416   40.00353208  40.00421062  40.0263509   48.49119679
  48.82531676 110.02575229 110.08402717 110.21768549 110.23147689
 110.23410245 110.35900333 118.03748578 119.2147978 ]
   7 ( 0.000  0.667  0.333)   [-5.77966070e+01 -5.77964959e+01 -1.50554889e+01 -1.50547390e+01
 -4.27713889e+00 -4.27419241e+00 -2.57039935e+00 -2.56994741e+00
 -2.56739274e+00 -2.56694804e+00 -2.56650456e+00 -2.56648864e+00
 -8.91879358e-01 -7.16981867e-01 -6.61047290e-02 -1.29506952e-02
  1.46012134e-01  2.10331151e-01  2.43834918e-01  2.45913391e-01] [  0.63793982   0.69787953   0.81055654   0.86768998   0.92291424
   0.96129947   0.99982746   1.06506423   1.10623012   1.20120448
   1.21367126   1.32141334   1.35962794   1.43352439   1.51088351
   1.52113222   1.55743888   1.58616628   1.60128769   1.64745684
   1.71946878   1.73966084   1.75347941   1.81101637   1.82391145
   1.88723937   1.89417759   1.96187258   2.01636208   2.02117184
   2.0917996    2.09968317   2.17832965   2.24667351   2.25220953
   2.2870641    2.33709627   2.34808819   2.39706958   2.43756797
   2.45222664   2.51275319   2.57032053   2.58019281   2.66308086
   2.70927664   2.78175539   2.78210919   2.80174079   2.85997311
   2.86741174   2.9289376    2.9306634    2.98805848   3.01371229
   3.01712736   3.09182163   3.13778446   3.15837934   3.23395851
   3.24282928   3.3235444    3.34191162   3.44373853   3.47558081
   3.57890807   3.5806159    3.70071329   4.1179025    4.22575193
   4.29322106   4.34135274   4.46823782   4.52668842   4.5669908
   4.66574329   4.77096119   4.81653244   4.86724515   4.94829101
   5.0593183    5.14181001   5.15266629   5.20558578   5.23971417
   5.27517697   5.31231975   5.35446306   5.39539515   5.42533482
   5.50915294   5.51255523   5.58464824   5.63056002   5.82302973
   6.03002599   6.10287457   6.181706     6.21845413   6.29373854
   6.38717842   6.39969611   6.43464698   6.48749865   6.49484878
   6.51063347   6.54435888   6.59212746   6.64598062   6.69181344
   6.74447012   6.88581258   7.00667446   7.02354687   7.12234438
   7.15199474   7.21402231   7.40723534  10.05766214  10.17591259
  11.30863858  11.37872188  11.45722398  11.52656812  11.59829903
  11.60084188  19.81443397  19.81920245  19.82173844  19.82293417
  19.82491959  19.828875    19.83720113  19.83859321  19.84183338
  19.84644864  19.8499144   19.85224323  19.85620018  19.86273026
  22.09120578  22.13406891  22.17228414  22.21459268  22.36263478
  22.49207647  23.74363391  23.81131377  23.84125729  23.89108559
  23.92399293  23.96643726  24.03738076  24.04307713  24.0562156
  24.08718147  24.14250604  24.41984598  37.44419321  37.61577752
  37.66733927  37.7257743   37.80614731  37.91161267  39.8472972
  39.86087336  39.8696124   39.87904283  39.93934227  39.95069399
  39.97970367  39.98159781  39.99833251  40.01888935  48.70615705
  48.80457721 110.08309597 110.10689467 110.13928884 110.16988159
 110.29358215 110.37491654 118.2473904  118.91797393]
   8 ( 0.000  0.667  0.667)   [-5.77966068e+01 -5.77964959e+01 -1.50554841e+01 -1.50547428e+01
 -4.27707721e+00 -4.27421143e+00 -2.57039538e+00 -2.56994008e+00
 -2.56740478e+00 -2.56695179e+00 -2.56650027e+00 -2.56647143e+00
 -8.90975450e-01 -7.17643561e-01 -6.66296756e-02 -1.24630586e-02
  1.46185014e-01  2.10292310e-01  2.43779691e-01  2.45926800e-01] [  0.63792112   0.69786067   0.81057709   0.86763039   0.92294515
   0.96136332   0.99982369   1.06506941   1.10618482   1.201238
   1.21365156   1.32142502   1.35957625   1.43353512   1.51082017
   1.5212003    1.55747856   1.58608374   1.60136294   1.64740423
   1.71947573   1.73970507   1.75344409   1.81100242   1.82391306
   1.88723954   1.89418405   1.96188499   2.01631352   2.02119401
   2.09177207   2.09972166   2.17832171   2.24670377   2.25220769
   2.28708483   2.33705169   2.34809511   2.39708704   2.43754621
   2.45222849   2.51276014   2.57033674   2.58018069   2.66308388
   2.70923524   2.7817035    2.78211935   2.80175739   2.85995698
   2.86744759   2.92893398   2.93066673   2.98807471   3.01372905
   3.01713127   3.09182625   3.13776755   3.15833837   3.23402755
   3.24280886   3.3235604    3.34194803   3.44372381   3.47550719
   3.57896035   3.5806379    3.70068126   4.11786909   4.2257642
   4.2932218    4.34132864   4.46826926   4.52669186   4.56697911
   4.66573449   4.77094016   4.81652017   4.8672777    4.94832389
   5.05933633   5.14179772   5.15270982   5.20556141   5.23972061
   5.27512709   5.31234037   5.354425     5.39538434   5.42536637
   5.5092532    5.51254622   5.58456114   5.63058564   5.82302756
   6.02999764   6.10287308   6.18170656   6.21846053   6.29371697
   6.38716041   6.39971253   6.43467984   6.48747943   6.49487603
   6.51058587   6.54437154   6.59216253   6.64596458   6.69185105
   6.74447045   6.88578009   7.006663     7.02351061   7.1223399
   7.15201886   7.21407144   7.40720694  10.05761134  10.1759532
  11.30865723  11.37870353  11.45720676  11.52663479  11.59831818
  11.60078308  19.81441671  19.81918984  19.82175689  19.82292138
  19.82499209  19.82880499  19.83726846  19.83857358  19.84177054
  19.84651998  19.84982184  19.85231803  19.85615334  19.86276041
  22.09118974  22.13413473  22.17231588  22.21452672  22.36263721
  22.49206149  23.74365375  23.81129772  23.84122284  23.89113016
  23.92392007  23.96650127  24.0373667   24.04303687  24.05624587
  24.08719344  24.14251076  24.41984571  37.44418912  37.61576036
  37.66737621  37.7257163   37.80617244  37.91163004  39.8472928
  39.86086367  39.86967719  39.87898001  39.93933591  39.95071846
  39.97973923  39.98156365  39.99836461  40.01884971  48.70615159
  48.80458285 110.08308242 110.10695464 110.13931981 110.16982161
 110.29358677 110.37489465 118.24738506 118.91797937]
   9 ( 0.333  0.000  0.000)   [-5.77966086e+01 -5.77964956e+01 -1.50558842e+01 -1.50543937e+01
 -4.27887613e+00 -4.27305489e+00 -2.57003416e+00 -2.56921714e+00
 -2.56832301e+00 -2.56720686e+00 -2.56635976e+00 -2.56631370e+00
 -9.77014649e-01 -6.29906640e-01 -3.40766111e-02  7.51366361e-03
  6.95906830e-02  1.93784354e-01  2.46591796e-01  2.65288662e-01] [  0.65195175   0.7272622    0.75151897   0.87013798   0.95302631
   0.96341658   0.96679529   1.08797478   1.12893015   1.19456231
   1.21965783   1.2973794    1.44322952   1.45952731   1.47209437
   1.50458877   1.52633757   1.58178516   1.60022292   1.66310274
   1.68713133   1.7135092    1.76239956   1.77654663   1.78023536
   1.87738914   1.88463265   1.9698959    2.00932939   2.06036941
   2.09628129   2.16739927   2.18766435   2.22465847   2.27515853
   2.31973313   2.33959279   2.3513059    2.35512664   2.44606311
   2.53900949   2.54084132   2.59961844   2.65215745   2.66447372
   2.69357993   2.7509289    2.76629603   2.77409984   2.85894527
   2.88580564   2.91044512   2.91782698   2.96218405   2.98927346
   3.05371875   3.06162059   3.14989621   3.17316081   3.21953043
   3.28634967   3.30481046   3.40817454   3.44732352   3.47495223
   3.53648326   3.62874184   3.7146797    4.18009583   4.22568898
   4.28810874   4.3583175    4.43496068   4.60010251   4.60443086
   4.76122729   4.83958919   4.87995568   4.92822601   4.94935455
   5.03146898   5.10175012   5.1074477    5.19900674   5.23827541
   5.26912509   5.37631954   5.40488161   5.41093635   5.41561585
   5.44914935   5.543243     5.57570572   5.63070568   5.8648552
   5.96465258   6.04884056   6.12233262   6.20411031   6.22483309
   6.32913475   6.37113773   6.39531229   6.43180006   6.4663819
   6.4921052    6.56485459   6.57553552   6.6244959    6.69204316
   6.78484147   6.91132084   6.96578883   7.07490187   7.15598966
   7.23837784   7.24875258   7.44753426   9.92615525  10.2430373
  11.26790252  11.29716505  11.49523672  11.5858674   11.81458217
  11.84608499  19.81348045  19.82134021  19.82242516  19.82981699
  19.83177367  19.83240639  19.83542215  19.83768     19.83904523
  19.84366193  19.85053363  19.85056558  19.85363296  19.85812815
  22.00859002  22.10322076  22.26875166  22.28218647  22.28512377
  22.46361764  23.64454899  23.82375524  23.84490543  23.90112382
  23.91108858  23.98576487  24.04037661  24.04378953  24.05390325
  24.08008717  24.14367582  24.5965351   37.4265241   37.47037106
  37.71442692  37.83261901  38.1655044   38.19277863  39.83347889
  39.85093116  39.85557968  39.86054384  39.93539787  39.9469396
  39.97824362  40.00352998  40.00421569  40.02634859  48.4911976
  48.82531661 110.02575353 110.08402498 110.21768611 110.23147471
 110.23410373 110.35900509 118.0374857  119.21479817]
  10 ( 0.333  0.000  0.333)   [-5.77966060e+01 -5.77964953e+01 -1.50554953e+01 -1.50547465e+01
 -4.27706739e+00 -4.27417029e+00 -2.57037288e+00 -2.56991354e+00
 -2.56738086e+00 -2.56699784e+00 -2.56655664e+00 -2.56646530e+00
 -8.90862114e-01 -7.17112978e-01 -6.63888130e-02 -1.28054168e-02
  1.45856428e-01  2.10182574e-01  2.43542603e-01  2.45805928e-01] [  0.63792699   0.69811575   0.81057432   0.86769234   0.92290922
   0.96131346   0.99989998   1.06511441   1.10623367   1.20119101
   1.21370298   1.32141167   1.35964155   1.43353883   1.51084694
   1.52115419   1.55746222   1.58616014   1.60133683   1.64750714
   1.71944159   1.73967183   1.75347998   1.81102649   1.82391554
   1.88722854   1.89422558   1.96186345   2.01637132   2.02116441
   2.09179688   2.09966691   2.17834111   2.24666059   2.25218044
   2.28704306   2.33707918   2.34807638   2.3970512    2.4375422
   2.45223516   2.51273441   2.570332     2.58018237   2.66308753
   2.70928383   2.78174657   2.78209953   2.80174319   2.85997123
   2.86741887   2.9289324    2.93065818   2.98807801   3.01370045
   3.0171245    3.09182268   3.13778684   3.15839183   3.23396256
   3.24282661   3.32355402   3.34190737   3.44371641   3.47558506
   3.57889533   3.58063592   3.70071493   4.11790606   4.22576344
   4.29322793   4.34136067   4.46824705   4.52670223   4.56700026
   4.66576965   4.7709354    4.81656967   4.86726373   4.94826646
   5.05934976   5.14182082   5.15269565   5.20556971   5.23970346
   5.27516181   5.31233028   5.3544613    5.39539294   5.42531586
   5.50911361   5.51256187   5.58460651   5.63057326   5.82300782
   6.03001504   6.1028714    6.18170615   6.21847706   6.29373815
   6.38718642   6.39969161   6.43465358   6.48752602   6.49482986
   6.51062632   6.54438296   6.59213526   6.64598968   6.69180991
   6.74446521   6.8858165    7.00668645   7.02354105   7.12234385
   7.15199174   7.21401466   7.40723006  10.05766042  10.17590616
  11.30863765  11.37872959  11.45722277  11.52656929  11.59830795
  11.6008371   19.8144354   19.81919476  19.82173668  19.82293829
  19.82491227  19.82887334  19.83720733  19.83859838  19.84182642
  19.84644097  19.8499178   19.85224526  19.85620485  19.86273638
  22.09120965  22.1340644   22.17228804  22.21458406  22.36263279
  22.49208461  23.74363053  23.81131277  23.8412631   23.89108924
  23.92398495  23.96643352  24.03738046  24.04308435  24.05622313
  24.08717513  24.14250352  24.41984878  37.44419771  37.61576836
  37.6673462   37.72577667  37.80615165  37.91160374  39.84730117
  39.8608775   39.86961268  39.87904093  39.93933805  39.95069208
  39.9796976   39.98159935  39.99833761  40.01888796  48.70615775
  48.80457768 110.08309913 110.10689509 110.1392889  110.16987663
 110.29358247 110.37491747 118.24739041 118.91797427]
  11 ( 0.333  0.000  0.667)   [-5.77966061e+01 -5.77964953e+01 -1.50554977e+01 -1.50547448e+01
 -4.27709788e+00 -4.27416030e+00 -2.57036688e+00 -2.56992340e+00
 -2.56738327e+00 -2.56699751e+00 -2.56655570e+00 -2.56646830e+00
 -8.91351390e-01 -7.16722835e-01 -6.64367079e-02 -1.27411068e-02
  1.45746499e-01  2.10224684e-01  2.43669944e-01  2.45763946e-01] [  0.63791241   0.69810092   0.81056383   0.86765487   0.92296972
   0.96137338   0.9999006    1.06512073   1.10622375   1.20120149
   1.21368681   1.32142156   1.35960764   1.43353784   1.51079508
   1.52117625   1.55749857   1.5861028    1.60142248   1.6474499
   1.71945761   1.73972166   1.75344039   1.81102843   1.82392859
   1.88722214   1.8942234    1.96187684   2.01631476   2.02118667
   2.09177752   2.09971213   2.17832619   2.24669163   2.25218798
   2.28707244   2.33705018   2.34809256   2.39706795   2.43751897
   2.45222055   2.51273482   2.57034389   2.58016222   2.66308825
   2.70923949   2.78169494   2.78210334   2.80175282   2.85996019
   2.86745246   2.92893097   2.93066446   2.98809075   3.01372131
   3.01712647   3.09183185   3.13777628   3.15834283   3.23403802
   3.24280356   3.32357024   3.34194336   3.44370121   3.47550801
   3.57894611   3.58065143   3.70069519   4.11787308   4.22577468
   4.29322671   4.34133319   4.46827828   4.52670871   4.5669902
   4.66576116   4.77091735   4.81655459   4.86730039   4.94829325
   5.05937128   5.14180939   5.15273179   5.20554547   5.23970799
   5.27511732   5.31234878   5.35442095   5.39538318   5.42534837
   5.50921211   5.51254817   5.58452225   5.63059619   5.82300629
   6.02999173   6.10287326   6.18170701   6.21847907   6.29371506
   6.38716757   6.39971084   6.43468677   6.48750811   6.49485949
   6.51057433   6.54439469   6.59217089   6.64597868   6.69184802
   6.74446516   6.88578317   7.00667261   7.02350679   7.12233916
   7.15201442   7.2140684    7.40720253  10.05760956  10.17594763
  11.30865666  11.37871036  11.45720595  11.52663427  11.59832789
  11.6007787   19.81441854  19.81918286  19.82175658  19.82292479
  19.82498257  19.82880318  19.83727592  19.83857769  19.8417661
  19.84650932  19.84982489  19.85232056  19.85615656  19.86276869
  22.09119474  22.13412616  22.17232155  22.2145221   22.362635
  22.49206504  23.74365001  23.81129701  23.84122891  23.89113363
  23.92391326  23.96649512  24.03736763  24.04304418  24.05625321
  24.08718746  24.14250798  24.41985028  37.44419719  37.61575062
  37.66737968  37.72572085  37.80617451  37.91162163  39.84729415
  39.86086983  39.86967545  39.8789797   39.93933288  39.9507158
  39.97973739  39.98156752  39.99836782  40.01884438  48.70615234
  48.80458332 110.08308206 110.10694968 110.13932332 110.16982204
 110.29358637 110.37489645 118.24738506 118.91797958]
  12 ( 0.333  0.333  0.000)   [-5.77965951e+01 -5.77964852e+01 -1.50544961e+01 -1.50544117e+01
 -4.27341156e+00 -4.27331371e+00 -2.56916610e+00 -2.56903057e+00
 -2.56893825e+00 -2.56729878e+00 -2.56723791e+00 -2.56717710e+00
 -6.58287805e-01 -6.57645696e-01 -1.20126781e-02  2.34970800e-02
  2.35548225e-02  1.55999853e-01  1.56355061e-01  1.59639853e-01] [  0.67020375   0.79211645   0.83982409   0.84012136   0.92376468
   0.92396497   1.02079016   1.09497951   1.09503498   1.27870742
   1.27875483   1.28569598   1.41244219   1.42156702   1.53280141
   1.53281329   1.55950843   1.60724597   1.63131708   1.63146173
   1.67905889   1.67909756   1.82632011   1.82640541   1.88658081
   1.96417446   1.96420023   1.97910568   2.04232529   2.09128061
   2.0913572    2.16593925   2.16610116   2.19867637   2.19872472
   2.24055751   2.25927038   2.35517868   2.35521246   2.38098623
   2.45343904   2.4534819    2.53844628   2.53846617   2.58772463
   2.59721328   2.66078061   2.66081888   2.71152534   2.84624703
   2.84990865   2.91484563   2.91485926   2.93174028   2.93179323
   2.96855252   3.06160353   3.06164821   3.16109953   3.16112825
   3.32719622   3.3272659    3.41902017   3.62430584   3.62435856
   3.62997684   3.78765592   3.78772964   4.19866977   4.19875964
   4.51524002   4.58869578   4.60230939   4.60233189   4.73949199
   4.80830647   4.87054158   4.87062299   5.02608248   5.03698558
   5.06598681   5.06601123   5.21571826   5.21581717   5.29417153
   5.29417836   5.31806003   5.31807609   5.46014748   5.46019665
   5.48804834   5.56073576   5.61929846   5.61932005   5.95360336
   6.00129068   6.00133936   6.00188383   6.19548594   6.22608698
   6.22610243   6.31748949   6.39175854   6.39179197   6.45554163
   6.57696747   6.57698056   6.63001936   6.64466598   6.64471135
   7.0016934    7.00176459   7.16360517   7.31379578   7.34083771
   7.34085016   7.65724339   7.65728944  10.2037928   10.20391803
  11.5092798   11.51684079  11.67227486  11.67241528  12.14719529
  12.14732881  19.81876516  19.81890001  19.81979702  19.82285194
  19.82299326  19.82885239  19.83459053  19.8349654   19.83506976
  19.8418285   19.84187979  19.84370092  19.84950817  19.84955768
  22.13681595  22.1437324   22.14375925  22.30415814  22.38353689
  22.38357627  23.73652716  23.84866761  23.84880715  23.85457417
  23.89152326  23.89160559  24.00879007  24.0140092   24.14917854
  24.1492399   24.82259957  24.82268063  37.69739575  37.77981014
  37.82093029  37.82106721  38.58080048  38.58093426  39.8204771
  39.82894106  39.83220888  39.83228064  39.95659044  39.95666802
  40.00216101  40.01633857  40.04804143  40.04811048  48.90718836
  48.9073197  110.11309455 110.11673764 110.11677187 110.27637364
 110.30684168 110.30688254 119.62686019 119.62693459]
  13 ( 0.333  0.333  0.333)   [-5.77965943e+01 -5.77964844e+01 -1.50544880e+01 -1.50544063e+01
 -4.27330174e+00 -4.27320215e+00 -2.56968528e+00 -2.56958966e+00
 -2.56847837e+00 -2.56761912e+00 -2.56676573e+00 -2.56669100e+00
 -6.47639350e-01 -6.47168747e-01 -4.09613714e-02 -4.04851756e-02
  2.60230466e-02  1.10203497e-01  2.29645619e-01  2.29871838e-01] [  0.72130054   0.78116416   0.78867506   0.78883717   0.92393556
   0.92406419   1.03088087   1.1266559    1.14775954   1.14782874
   1.25688552   1.25695052   1.44871865   1.47545587   1.5666867
   1.56677696   1.6234107    1.62343582   1.64503182   1.68739738
   1.68750786   1.72080155   1.77380954   1.79613445   1.79618842
   1.91279564   1.91280933   1.98326375   2.00410485   2.07008188
   2.11676147   2.1168159    2.1489448    2.14900754   2.25814107
   2.25820841   2.29386109   2.32950983   2.32953282   2.38156116
   2.43520675   2.43522855   2.50356629   2.5329167    2.5329408
   2.62967687   2.68988923   2.68991965   2.74845589   2.83825027
   2.8600151    2.86003673   2.92345231   2.94163798   2.9416791
   2.97569071   3.06464609   3.06468388   3.28798917   3.2880246
   3.3538028    3.35386101   3.4220646    3.44018805   3.61044382
   3.61046537   3.77485258   3.77491286   4.2751869    4.27525715
   4.3200288    4.49825836   4.61676736   4.61679389   4.81645613
   4.81646785   4.88015384   4.88454012   5.04185026   5.04185631
   5.08543093   5.15969023   5.18135681   5.18140433   5.33585676
   5.3358973    5.39410253   5.39411996   5.40886196   5.47192584
   5.47198396   5.48665373   5.58942963   5.5894693    5.89505653
   5.9540342    6.12983582   6.12989899   6.26580971   6.26582004
   6.35637612   6.3630845    6.46117359   6.46123857   6.53577955
   6.5779895    6.6276358    6.62768266   6.75383216   6.75385942
   6.95427381   6.95432398   7.15300462   7.16706484   7.16708133
   7.23477791   7.59913174   7.59915573  10.39323834  10.3933578
  11.37435426  11.52881105  11.56678969  11.56680276  11.90182178
  11.90183196  19.81479361  19.81615052  19.81620146  19.82086327
  19.82095707  19.82185078  19.83146402  19.83932116  19.84024587
  19.84035482  19.84731791  19.84743346  19.85685238  19.85687116
  22.19608774  22.19614883  22.24961961  22.31766802  22.44193753
  22.44201015  23.82200733  23.8288159   23.82895508  23.85119219
  23.85130509  23.88749376  23.98227601  24.00038601  24.07146536
  24.07155576  24.52844847  24.52852873  37.59814496  37.71199526
  37.71201395  37.73564383  38.26586556  38.26588316  39.81882524
  39.82778254  39.89024035  39.89030498  39.97031615  39.97038701
  39.98747748  39.99527461  40.02856186  40.0286175   48.80252353
  48.8026553  110.16032772 110.16039499 110.20027261 110.27018435
 110.35193574 110.35200962 119.08728379 119.08735843]
  14 ( 0.333  0.333  0.667)   [-5.77965943e+01 -5.77964844e+01 -1.50544880e+01 -1.50544063e+01
 -4.27330174e+00 -4.27320215e+00 -2.56968528e+00 -2.56958966e+00
 -2.56847837e+00 -2.56761912e+00 -2.56676573e+00 -2.56669100e+00
 -6.47639350e-01 -6.47168747e-01 -4.09613715e-02 -4.04851754e-02
  2.60230466e-02  1.10203497e-01  2.29645619e-01  2.29871837e-01] [  0.72130054   0.78116416   0.78867506   0.78883717   0.92393556
   0.92406419   1.03088087   1.1266559    1.14775952   1.14782876
   1.25688552   1.25695051   1.44871865   1.47545587   1.56668673
   1.56677693   1.62341065   1.62343587   1.64503182   1.68739737
   1.68750787   1.72080155   1.77380953   1.79613444   1.79618843
   1.91279562   1.91280936   1.98326376   2.00410485   2.07008189
   2.11676142   2.11681595   2.14894487   2.14900748   2.25814127
   2.25820822   2.2938611    2.32951012   2.32953252   2.38156115
   2.43520651   2.43522876   2.50356631   2.53291664   2.53294086
   2.62967687   2.68988931   2.68991959   2.74845592   2.83825028
   2.86001466   2.86003715   2.92345233   2.94163838   2.94167871
   2.97569068   3.06464586   3.0646841    3.28798948   3.28802431
   3.35380264   3.35386121   3.42206464   3.44018808   3.6104437
   3.61046544   3.77485247   3.77491299   4.27518684   4.2752572
   4.32002881   4.49825836   4.61676751   4.61679374   4.81645595
   4.81646802   4.88015384   4.88454013   5.04185027   5.0418563
   5.08543093   5.15969023   5.1813568    5.18140435   5.33585678
   5.33589728   5.39410255   5.39411994   5.40886196   5.47192576
   5.47198402   5.48665373   5.5894296    5.58946935   5.89505652
   5.9540342    6.12983576   6.12989908   6.26580975   6.26582
   6.35637612   6.36308451   6.46117359   6.46123859   6.53577955
   6.57798949   6.62763599   6.62768249   6.7538321    6.75385936
   6.95427388   6.95432389   7.15300464   7.1670648    7.1670814
   7.23477791   7.59913194   7.59915574  10.39323843  10.39335776
  11.37435427  11.52881105  11.56678965  11.56680283  11.90182187
  11.90183183  19.81479361  19.81615052  19.81620146  19.82086328
  19.82095707  19.82185078  19.83146401  19.83932116  19.84024587
  19.84035482  19.84731791  19.84743346  19.85685239  19.85687115
  22.19608775  22.19614883  22.24961961  22.31766802  22.44193752
  22.44201016  23.82200733  23.8288159   23.82895507  23.85119219
  23.85130509  23.88749376  23.98227601  24.00038601  24.07146536
  24.07155576  24.52844845  24.52852877  37.59814496  37.71199526
  37.71201396  37.73564383  38.2658656   38.26588313  39.81882524
  39.82778254  39.89024036  39.89030498  39.97031615  39.97038702
  39.98747748  39.99527461  40.02856186  40.02861751  48.80252353
  48.8026553  110.16032772 110.16039499 110.20027261 110.27018435
 110.35193574 110.35200962 119.08728379 119.08735845]
  15 ( 0.333  0.667  0.000)   [-5.77966086e+01 -5.77964956e+01 -1.50558842e+01 -1.50543937e+01
 -4.27887613e+00 -4.27305489e+00 -2.57003416e+00 -2.56921714e+00
 -2.56832300e+00 -2.56720686e+00 -2.56635976e+00 -2.56631370e+00
 -9.77014648e-01 -6.29906639e-01 -3.40766094e-02  7.51366405e-03
  6.95906868e-02  1.93784346e-01  2.46591800e-01  2.65288657e-01] [  0.65195175   0.7272622    0.75151899   0.87013799   0.95302632
   0.96341654   0.96679528   1.08797479   1.1289302    1.19456226
   1.2196578    1.29737933   1.4432294    1.45952758   1.47209428
   1.50458879   1.52633768   1.58178498   1.60022305   1.66310285
   1.6871314    1.71350904   1.76239978   1.77654666   1.7802352
   1.87738879   1.8846326    1.96989592   2.00932938   2.06036954
   2.09628116   2.16739945   2.18766392   2.22465863   2.27515836
   2.31973304   2.33959298   2.35130584   2.35512661   2.44606316
   2.53901039   2.54084152   2.59961824   2.65215754   2.66447349
   2.69358015   2.750929     2.76629652   2.77409963   2.85894543
   2.88580399   2.9104441    2.91782666   2.96218459   2.98927067
   3.05371878   3.06161949   3.1498955    3.17316153   3.21953014
   3.28634903   3.30481009   3.40817441   3.44732446   3.47495152
   3.53646787   3.62874197   3.71467953   4.18009592   4.22568835
   4.2881087    4.35831778   4.43496062   4.60010245   4.60443021
   4.76122702   4.83958929   4.87995555   4.92822635   4.94935467
   5.03146934   5.10175035   5.10744678   5.19900631   5.23827551
   5.26912516   5.37631937   5.40488092   5.41093638   5.41561615
   5.44914949   5.54324112   5.57570574   5.63070015   5.86485552
   5.96465273   6.04884045   6.12233298   6.20411037   6.22483302
   6.32913504   6.37113619   6.39531234   6.43180038   6.46638185
   6.49210553   6.56485227   6.57553581   6.62449317   6.6920431
   6.78484161   6.91131941   6.96578902   7.07490211   7.15598953
   7.23837725   7.24875274   7.44753444   9.92615551  10.24303785
  11.26790208  11.2971653   11.49523675  11.58586768  11.81458094
  11.84608515  19.81348042  19.82134022  19.82242516  19.82981697
  19.83177369  19.83240635  19.83542216  19.83767998  19.83904522
  19.84366196  19.85053358  19.85056559  19.85363296  19.85812818
  22.00859005  22.10322072  22.26875172  22.28218603  22.28512378
  22.46361767  23.64454899  23.82375519  23.84490547  23.90112387
  23.91108851  23.98576483  24.04037653  24.04378966  24.05390327
  24.08008718  24.14367581  24.5965351   37.42652411  37.47037098
  37.71442694  37.83261905  38.16550442  38.19277828  39.83347885
  39.85093117  39.85557958  39.86054384  39.93539777  39.94693962
  39.97824365  40.00352989  40.00421584  40.02634858  48.49119762
  48.82531671 110.02575354 110.084025   110.21768609 110.23147466
 110.23410371 110.3590051  118.03748571 119.21479817]
  16 ( 0.333  0.667  0.333)   [-5.77966061e+01 -5.77964953e+01 -1.50554977e+01 -1.50547448e+01
 -4.27709788e+00 -4.27416030e+00 -2.57036687e+00 -2.56992340e+00
 -2.56738327e+00 -2.56699751e+00 -2.56655570e+00 -2.56646830e+00
 -8.91351389e-01 -7.16722834e-01 -6.64367065e-02 -1.27411045e-02
[...]
 110.37068771 110.45206477 118.31913343 118.98952611]
  21 ( 0.667  0.333  0.000)   [-5.78944563e+01 -5.78944556e+01 -1.49504961e+01 -1.49504748e+01
 -4.30661930e+00 -4.30657255e+00 -2.62284640e+00 -2.62274226e+00
 -2.62264359e+00 -2.62255241e+00 -2.62244123e+00 -2.62237462e+00
 -5.40838621e-01 -4.78072280e-01 -3.83281993e-02 -3.62114824e-02
  1.70710918e-02  7.65310686e-02  1.30040122e-01  1.40413690e-01] [  0.74778697   0.76327712   0.8315755    0.93774085   0.95904132
   0.99479832   1.01718759   1.11100413   1.1503569    1.20735739
   1.2305216    1.31486052   1.44362997   1.45830925   1.46599182
   1.51252649   1.54281121   1.58696243   1.6183327    1.65892131
   1.6886742    1.72535517   1.75115143   1.78461327   1.78740534
   1.88364735   1.89176883   1.98164171   2.00241884   2.06006395
   2.09297015   2.16127428   2.1966434    2.22590689   2.27251788
   2.33956943   2.33994784   2.34342647   2.34721181   2.4423737
   2.53409117   2.53522447   2.60070758   2.66397042   2.66624859
   2.70404527   2.76230613   2.77672983   2.78979303   2.86787481
   2.87048743   2.90462278   2.93976049   2.97338449   2.99351023
   3.06351912   3.06864986   3.16386809   3.19703087   3.23241234
   3.30004638   3.32137783   3.42385883   3.47247113   3.50609942
   3.5706631    3.64725863   3.73306461   4.18110677   4.20404238
   4.29390103   4.3780521    4.44196698   4.6069248    4.65261315
   4.79618177   4.91060196   4.94360942   5.00772836   5.01188911
   5.09371391   5.17749719   5.1821865    5.2810576    5.31095667
   5.33660611   5.4568237    5.46632371   5.48211302   5.48932951
   5.51842467   5.62214763   5.63788644   5.69273787   5.91367469
   6.00837832   6.08215352   6.15620648   6.22718389   6.29700392
   6.36852622   6.37519005   6.45812598   6.48492817   6.50772316
   6.54417051   6.56940027   6.58589551   6.63029714   6.74590845
   6.83807078   6.94707333   6.98193918   7.09093551   7.20629859
   7.27791612   7.29716667   7.47663918   9.88798334  10.20415749
  11.2166838   11.24733548  11.4449466   11.53536572  11.76500348
  11.79634856  19.75551004  19.76341245  19.76450246  19.7718334
  19.77401178  19.77466046  19.77742722  19.7799114   19.78120909
  19.78588736  19.7927679   19.79289939  19.79586811  19.80034335
  22.10813533  22.20435603  22.3687652   22.38085177  22.3858704
  22.56306209  23.6492876   23.76066369  23.80135099  23.83790774
  23.88524101  23.92427802  23.98072774  23.98163278  23.99313592
  24.03562526  24.12241927  24.68538994  37.3517756   37.39552788
  37.63989522  37.75836956  38.09171628  38.11870685  39.93668583
  39.95386565  39.95821888  39.96369032  40.03824322  40.04956853
  40.08122767  40.10632978  40.10732991  40.12915647  48.4199733
  48.75370019 110.10289622 110.16132742 110.29489548 110.30875172
 110.31133144 110.43611431 118.10931386 119.28626667]
  22 ( 0.667  0.333  0.333)   [-5.78944563e+01 -5.78944557e+01 -1.49504910e+01 -1.49504801e+01
 -4.30660824e+00 -4.30658461e+00 -2.62285534e+00 -2.62274866e+00
 -2.62259943e+00 -2.62250770e+00 -2.62246178e+00 -2.62241878e+00
 -5.26799903e-01 -4.95585981e-01 -6.32730230e-02 -2.87482273e-02
  5.33157126e-02  9.05762818e-02  1.22290401e-01  1.26461028e-01] [  0.71743232   0.75605927   0.87259492   0.91631337   0.98235233
   1.00551935   1.03063456   1.08804704   1.13164221   1.21254649
   1.21255641   1.31452241   1.36307927   1.44945126   1.5183727
   1.52629294   1.55894905   1.60463632   1.61620565   1.6605842
   1.72174411   1.7432794    1.75266792   1.81221577   1.83097971
   1.88693505   1.89638464   1.95707349   2.0139755    2.01883133
   2.08571466   2.10935139   2.17719927   2.23894544   2.25027303
   2.28157723   2.33804671   2.36416994   2.39281308   2.43600914
   2.4535247    2.51320326   2.57709707   2.5788323    2.66937703
   2.72767689   2.77202082   2.79386581   2.81990079   2.85002057
   2.88182498   2.91420025   2.94329464   3.0063348    3.02664939
   3.03051033   3.11547471   3.15933602   3.17505806   3.25143015
   3.25430962   3.33826225   3.3618956    3.4631211    3.50450258
   3.58932765   3.60734996   3.71371357   4.1162688    4.22371705
   4.27717577   4.3398224    4.46375924   4.52194048   4.60258962
   4.7162638    4.85081071   4.88898215   4.93814777   5.02150662
   5.1361816    5.21757197   5.21954382   5.28636238   5.30885268
   5.34492553   5.39239699   5.42219273   5.46994803   5.4949769
   5.58214192   5.59066319   5.66154553   5.69360163   5.87235362
   6.05354254   6.15352424   6.21810997   6.24180853   6.32772079
   6.42395369   6.43585419   6.48760231   6.52129706   6.52286811
   6.54191448   6.60168519   6.62048838   6.6984592    6.71274378
   6.79348224   6.91477538   7.05037673   7.05202587   7.15321333
   7.18964137   7.24476972   7.43472854  10.01855806  10.13713315
  11.25965338  11.32805265  11.40707002  11.47673299  11.54791059
  11.55181503  19.75645243  19.76125569  19.76386637  19.76500986
  19.7671151   19.77094176  19.77936769  19.78067345  19.78399895
  19.78863167  19.79217611  19.79454658  19.79854097  19.80504041
  22.190533    22.23515826  22.27180062  22.31510685  22.46140455
  22.59075722  23.73109216  23.76880553  23.7778295   23.82736479
  23.88026976  23.91150183  23.98122587  23.98427211  23.99442366
  24.03186601  24.16285525  24.50179975  37.36985398  37.54124658
  37.59332246  37.65132318  37.73186457  37.83726329  39.95021135
  39.96377828  39.9727245   39.98213677  40.0422779   40.0531996
  40.08274487  40.08445927  40.10129742  40.12144664  48.63480333
  48.73304904 110.16027834 110.18422238 110.21653711 110.2471383
 110.37068771 110.45206474 118.31913345 118.98952614]
  23 ( 0.667  0.333  0.667)   [-5.78944563e+01 -5.78944556e+01 -1.49504910e+01 -1.49504801e+01
 -4.30660824e+00 -4.30658461e+00 -2.62285529e+00 -2.62274876e+00
 -2.62259934e+00 -2.62250770e+00 -2.62246181e+00 -2.62241878e+00
 -5.26799904e-01 -4.95585980e-01 -6.32730307e-02 -2.87482147e-02
  5.33156969e-02  9.05762819e-02  1.22290400e-01  1.26461040e-01] [  0.71743243   0.75605912   0.87259492   0.9163133    0.98235246
   1.00551932   1.03063455   1.08804714   1.13164228   1.21254637
   1.21255628   1.31452246   1.36307918   1.44945136   1.51837278
   1.52629295   1.558949     1.60463631   1.61620574   1.66058414
   1.72174396   1.74327944   1.75266809   1.81221577   1.83097963
   1.886935     1.89638462   1.95707344   2.01397553   2.01883139
   2.08571473   2.10935138   2.17719933   2.23894551   2.25027313
   2.28157713   2.33804672   2.36417017   2.392813     2.43600895
   2.45352463   2.5132033    2.57709708   2.57883236   2.66937718
   2.72767675   2.77202065   2.79386585   2.81990098   2.85002091
   2.88182493   2.91420054   2.94329464   3.00633449   3.02664919
   3.03051029   3.11547477   3.15933604   3.1750584    3.25143008
   3.25430972   3.33826242   3.36189552   3.4631211    3.50450401
   3.58932778   3.60734977   3.71371356   4.11626908   4.22371702
   4.27717569   4.3398224    4.46375939   4.52194143   4.60258969
   4.71626387   4.85081054   4.88898223   4.93814781   5.02150717
   5.13618174   5.21757224   5.21954391   5.28636214   5.30885272
   5.3449253    5.39239707   5.42219264   5.46994824   5.49497696
   5.58214204   5.59066344   5.66154526   5.69360184   5.87235371
   6.05354286   6.15352407   6.21811012   6.24180846   6.3277209
   6.42395357   6.43585435   6.48760234   6.52129704   6.52286829
   6.54191519   6.60168543   6.62048822   6.69845881   6.71274392
   6.79348249   6.91477574   7.05037675   7.05202578   7.15321325
   7.18964147   7.24476976   7.43472875  10.01855823  10.13713324
  11.25965341  11.32805265  11.40707008  11.47673292  11.54791109
  11.55181536  19.75645248  19.76125574  19.7638663   19.76500992
  19.76711486  19.77094198  19.77936746  19.78067353  19.78399917
  19.78863144  19.79217639  19.79454636  19.79854113  19.8050403
  22.19053277  22.23515909  22.27180107  22.31510602  22.46140461
  22.590757    23.73109184  23.76880584  23.77782961  23.82736464
  23.88027004  23.91150161  23.981226    23.98427216  23.99442357
  24.03186589  24.16285522  24.50179981  37.36985399  37.54124663
  37.59332235  37.65132338  37.73186452  37.83726338  39.95021123
  39.96377818  39.97272546  39.98213584  40.04227781  40.05319998
  40.08274543  40.08445879  40.1012979   40.121446    48.63480336
  48.73304905 110.16027806 110.18422333 110.21653769 110.24713735
 110.37068778 110.45206438 118.31913337 118.98952622]
  24 ( 0.667  0.667  0.000)   [-5.78944563e+01 -5.78944557e+01 -1.49504978e+01 -1.49504965e+01
 -4.30658068e+00 -4.30658022e+00 -2.62277326e+00 -2.62274308e+00
 -2.62274270e+00 -2.62262123e+00 -2.62262086e+00 -2.62255314e+00
 -4.85456541e-01 -4.85456092e-01 -5.29764658e-02 -4.08484118e-03
 -4.08451953e-03  5.40321373e-02  5.75686603e-02  5.75690648e-02] [  0.68519844   0.84407994   0.9059778    0.90597816   1.00261706
   1.00261741   1.04444583   1.12475292   1.12475315   1.27961221
   1.27961262   1.28837854   1.39871969   1.41098407   1.52948179
   1.5294847    1.58315398   1.63344664   1.64905067   1.64905332
   1.70575319   1.705754     1.84113743   1.84113877   1.86925679
   1.96438632   1.97515461   1.97515643   2.0197566    2.07542953
   2.07543234   2.1598963    2.15989771   2.19587712   2.19588983
   2.24744404   2.25309737   2.33251781   2.33254156   2.38062164
   2.46371238   2.46372004   2.54344896   2.5434668    2.58414757
   2.61081869   2.66827215   2.66827977   2.70599179   2.86295504
   2.86838488   2.91477308   2.91478624   2.96837099   2.96837702
   2.99162453   3.051011     3.05101446   3.16200487   3.16202261
   3.34412881   3.34413648   3.44698576   3.65108032   3.65679012
   3.6567949    3.82402536   3.82402858   4.18875883   4.18876208
   4.52683958   4.60230686   4.66896153   4.66896206   4.78333704
   4.88140428   4.89956842   4.89957205   5.09479491   5.12104126
   5.14396653   5.14396699   5.28148261   5.28148435   5.34362199
   5.34362344   5.38125439   5.38125509   5.54411133   5.5441136
   5.5591359    5.64282267   5.66015722   5.66016134   5.99757569
   6.0371078    6.03711654   6.04332885   6.19684004   6.27750723
   6.27750931   6.37303087   6.42093071   6.42093103   6.4392616
   6.60377448   6.60377614   6.64458624   6.70185448   6.70185506
   7.01772161   7.01772247   7.21841912   7.35334306   7.37322663
   7.37322815   7.72470953   7.72471312  10.16421505  10.16421566
  11.46129118  11.46493629  11.62339068  11.62339532  12.09752062
  12.0975218   19.76107607  19.76107647  19.76170268  19.76520552
  19.76520597  19.77088129  19.77668824  19.77720639  19.77720675
  19.78412778  19.78412797  19.78565974  19.79178817  19.79178836
  22.23777679  22.2443785   22.24437916  22.39926039  22.4842229
  22.4842234   23.67272543  23.78623245  23.78623296  23.79117981
  23.83363477  23.83363499  23.95158377  23.95196629  24.08782943
  24.08782971  24.92074535  24.92074656  37.62483475  37.70484112
  37.74646028  37.74646157  38.50714168  38.50714235  39.92220003
  39.93211085  39.93518549  39.9351866   40.0595697   40.05957088
  40.10535438  40.11938372  40.15027719  40.15027827  48.83576936
  48.83576992 110.19039203 110.19390465 110.19390532 110.35358788
 110.3840664  110.38406707 119.69819553 119.69819685]
  25 ( 0.667  0.667  0.333)   [-5.78944564e+01 -5.78944558e+01 -1.49504973e+01 -1.49504960e+01
 -4.30658144e+00 -4.30658098e+00 -2.62284157e+00 -2.62284142e+00
 -2.62271822e+00 -2.62260805e+00 -2.62251836e+00 -2.62251822e+00
 -4.84235682e-01 -4.84235228e-01 -4.71615359e-02 -4.71614109e-02
 -3.16965466e-02  2.05368285e-02  1.16705867e-01  1.16706077e-01] [  0.74651584   0.82862778   0.83482793   0.83482804   1.02513933
   1.02513944   1.04146007   1.11704463   1.17430634   1.17430654
   1.26376523   1.26376546   1.45421062   1.50299831   1.58406315
   1.58406577   1.63833477   1.63833596   1.66058273   1.69322198
   1.69322488   1.71403081   1.76854978   1.802695     1.80269602
   1.90843446   1.90843634   1.96199166   1.98579562   2.06268009
   2.11364018   2.11364243   2.14638428   2.1463884    2.25625212
   2.25625862   2.30042525   2.32856973   2.32857142   2.38285624
   2.43165422   2.43167573   2.4918611    2.53497229   2.53497805
   2.62161423   2.69978358   2.69979162   2.74488022   2.86167309
   2.86317844   2.86319115   2.94100274   2.95091854   2.950929
   3.00975321   3.08100812   3.08101552   3.28954789   3.28954898
   3.37884387   3.37884826   3.44737698   3.46866332   3.63855159
   3.63855258   3.80734323   3.80734577   4.27436209   4.27436322
   4.31282073   4.50237496   4.63246666   4.63246713   4.88160793
   4.8816083    4.94765075   4.95187788   5.10984579   5.10984688
   5.16257409   5.22533143   5.25673408   5.25673574   5.39490849
   5.3949102    5.46404022   5.46404186   5.48487866   5.54925504
   5.54925765   5.56875461   5.63938008   5.63938032   5.95618009
   6.0034779    6.11794746   6.11794995   6.33832983   6.3383301
   6.34434655   6.39247393   6.49991689   6.49991785   6.53718178
   6.60584772   6.68579826   6.68579967   6.78326163   6.78326262
   7.00123442   7.00123473   7.19685727   7.19685793   7.20231659
   7.27477493   7.63344405   7.63344851  10.35583822  10.35583891
  11.32311733  11.47861192  11.51707113  11.51707348  11.85253927
  11.85254002  19.75674362  19.75820929  19.75820944  19.76331523
  19.76331551  19.7639588   19.77347058  19.78131335  19.78235578
  19.78235613  19.78972056  19.78972092  19.79923101  19.79923107
  22.29580007  22.29580116  22.34943109  22.4140175   22.54158698
  22.541588    23.7581724   23.77304314  23.77304364  23.79640916
  23.79640944  23.82522594  23.92440767  23.93803352  24.01637692
  24.01637731  24.61290351  24.61290447  37.52320061  37.63736856
  37.63736903  37.66165564  38.19213182  38.19213205  39.92145508
  39.93098707  39.99327227  39.99327326  40.07350496  40.07350605
  40.09073175  40.0983465   40.13056663  40.1305675   48.73095647
  48.73095701 110.23748658 110.23748783 110.27754966 110.34742377
 110.4292053  110.42920655 119.15873509 119.15873641]
  26 ( 0.667  0.667  0.667)   [-5.78944564e+01 -5.78944558e+01 -1.49504973e+01 -1.49504960e+01
 -4.30658144e+00 -4.30658098e+00 -2.62284157e+00 -2.62284142e+00
 -2.62271822e+00 -2.62260805e+00 -2.62251836e+00 -2.62251822e+00
 -4.84235682e-01 -4.84235228e-01 -4.71615372e-02 -4.71614097e-02
 -3.16965467e-02  2.05368285e-02  1.16705864e-01  1.16706079e-01] [  0.74651584   0.82862778   0.83482793   0.83482804   1.02513932
   1.02513945   1.04146007   1.11704463   1.17430633   1.17430654
   1.26376521   1.26376548   1.45421061   1.50299832   1.58406317
   1.58406576   1.63833476   1.63833596   1.66058272   1.69322199
   1.69322487   1.71403082   1.7685498    1.80269498   1.80269603
   1.90843444   1.90843637   1.96199165   1.98579562   2.06268008
   2.11364027   2.11364237   2.14638427   2.1463884    2.25625212
   2.25625856   2.30042525   2.32856978   2.32857138   2.38285624
   2.43165425   2.43167582   2.49186105   2.53497237   2.53497795
   2.62161423   2.69978361   2.69979153   2.7448802    2.86167304
   2.86317848   2.86319118   2.94100273   2.95091852   2.95092898
   3.00975328   3.08100811   3.08101549   3.28954788   3.28954898
   3.37884375   3.37884836   3.44737694   3.46866328   3.63855139
   3.63855279   3.80734326   3.80734571   4.2743621    4.27436322
   4.3128207    4.50237497   4.6324667    4.63246703   4.88160799
   4.88160824   4.94765076   4.95187788   5.10984577   5.10984689
   5.1625741    5.22533142   5.2567341    5.25673573   5.39490852
   5.39491021   5.46404022   5.46404183   5.48487866   5.54925502
   5.54925769   5.56875461   5.63938003   5.63938032   5.95618009
   6.00347789   6.11794739   6.11794996   6.33832982   6.33833008
   6.34434653   6.3924739    6.49991688   6.49991784   6.53718178
   6.60584774   6.6857982    6.68579969   6.78326167   6.7832627
   7.00123439   7.00123476   7.19685743   7.19685776   7.20231654
   7.27477495   7.63344395   7.6334483   10.35583829  10.35583874
  11.32311732  11.47861192  11.51707109  11.51707346  11.85253924
  11.85254006  19.75674362  19.75820929  19.75820944  19.76331523
  19.76331551  19.7639588   19.77347058  19.78131335  19.78235578
  19.78235613  19.78972055  19.78972092  19.79923101  19.79923107
  22.29580007  22.29580116  22.34943109  22.4140175   22.54158699
  22.541588    23.7581724   23.77304316  23.77304362  23.79640915
  23.79640945  23.82522594  23.92440767  23.93803352  24.01637692
  24.0163773   24.61290358  24.61290437  37.5232006   37.63736855
  37.63736904  37.66165564  38.19213181  38.19213205  39.92145508
  39.93098707  39.99327227  39.99327326  40.07350496  40.07350605
  40.09073175  40.09834649  40.13056663  40.13056749  48.73095646
  48.73095702 110.23748658 110.23748783 110.27754966 110.34742377
 110.42920531 110.42920655 119.15873511 119.15873638]
    CPU time for get_k_kpts: make_kpt ki>=kj (0,*)     24.66 sec, wall time      0.87 sec
    CPU time for get_k_kpts: make_kpt ki>=kj (1,*)     56.36 sec, wall time      1.95 sec
    CPU time for get_k_kpts: make_kpt ki>=kj (2,*)     86.19 sec, wall time      2.86 sec
    CPU time for get_k_kpts: make_kpt ki>=kj (3,*)    114.02 sec, wall time      3.78 sec
    CPU time for get_k_kpts: make_kpt ki>=kj (4,*)    137.63 sec, wall time      4.73 sec
    CPU time for get_k_kpts: make_kpt ki>=kj (5,*)    165.58 sec, wall time      5.54 sec
    CPU time for get_k_kpts: make_kpt ki>=kj (6,*)    186.69 sec, wall time      6.26 sec
    CPU time for get_k_kpts: make_kpt ki>=kj (7,*)    230.22 sec, wall time      7.74 sec
    CPU time for get_k_kpts: make_kpt ki>=kj (8,*)    260.59 sec, wall time      8.73 sec
    CPU time for get_k_kpts: make_kpt ki>=kj (9,*)    304.33 sec, wall time     10.29 sec
    CPU time for get_k_kpts: make_kpt ki>=kj (10,*)    319.57 sec, wall time     10.67 sec
    CPU time for get_k_kpts: make_kpt ki>=kj (11,*)    347.06 sec, wall time     11.62 sec
    CPU time for get_k_kpts: make_kpt ki>=kj (12,*)    364.33 sec, wall time     12.17 sec
    CPU time for get_k_kpts: make_kpt ki>=kj (13,*)    372.57 sec, wall time     12.50 sec
    CPU time for get_k_kpts: make_kpt ki>=kj (14,*)    421.71 sec, wall time     14.15 sec
    CPU time for get_k_kpts: make_kpt ki>=kj (15,*)    449.18 sec, wall time     15.50 sec
    CPU time for get_k_kpts: make_kpt ki>=kj (16,*)    463.07 sec, wall time     15.59 sec
    CPU time for get_k_kpts: make_kpt ki>=kj (17,*)    478.63 sec, wall time     16.23 sec
    CPU time for get_k_kpts: make_kpt ki>=kj (18,*)    527.27 sec, wall time     17.79 sec
    CPU time for get_k_kpts: make_kpt ki>=kj (19,*)    559.38 sec, wall time     18.89 sec
    CPU time for get_k_kpts: make_kpt ki>=kj (20,*)    587.16 sec, wall time     19.74 sec
    CPU time for get_k_kpts: make_kpt ki>=kj (21,*)    594.53 sec, wall time     20.36 sec
    CPU time for get_k_kpts: make_kpt ki>=kj (22,*)    623.68 sec, wall time     20.94 sec
    CPU time for get_k_kpts: make_kpt ki>=kj (23,*)    668.80 sec, wall time     22.45 sec
    CPU time for get_k_kpts: make_kpt ki>=kj (24,*)    687.52 sec, wall time     23.06 sec
    CPU time for get_k_kpts: make_kpt ki>=kj (25,*)    704.25 sec, wall time     23.72 sec
    CPU time for get_k_kpts: make_kpt ki>=kj (26,*)    751.17 sec, wall time     25.19 sec
Monkhorst pack size [3 3 3] ew_eta 0.8844880366313383 ew_cut 7.945196698079207
Ewald components = 7.43877040383099e-109, -0.499283113992858, 0.434708743263287
    CPU time for get_j pass 1    352.22 sec, wall time     11.45 sec
    CPU time for get_j pass 2     12.30 sec, wall time      7.87 sec
    CPU time for vj and vk  10855.87 sec, wall time    372.85 sec
Ewald components = 1.30435514859409e-35, -627.49757153652, 488.979720419325
E1 = (-567.7161474464696+3.3537730961010724e-12j)  E_coul = (113.09239929414517+9.551167900111522e-12j)
Extra cycle  E= -593.14159926952  delta_E= -1.09e-09  |g|= 9.86e-05  |ddm|= 0.0554
    CPU time for scf_cycle 404701.04 sec, wall time  14579.00 sec
    CPU time for SCF 404701.08 sec, wall time  14579.04 sec
converged SCF energy = -593.14159926952
