#INFO: **** input file is /burg/ccce/users/eav2136/projects/core_level_spectroscopy/01_peommp2_cbe/meanfield.py ****
#!/usr/bin/env python
import json
from pyscf.pbc import gto, scf
from pyscf.pbc.tools import lattice, pyscf_ase
from pyscf.pbc.scf import chkfile
from fileutils import load, dump
import sys

material = load("data/{}".format(sys.argv[1]))
# Create Cell
cell = gto.Cell()
ase_atom = lattice.get_ase_atom(material["formula"])
cell.atom = pyscf_ase.ase_atoms_to_pyscf(ase_atom)
cell.a = ase_atom.cell[:]
cell.unit = "B"
cell.basis = material["basis"]
cell.exp_to_discard = material["exp_to_discard"]
cell.verbose = 7
cell.build()

# Mean Field
kdensity = material["kdensity"]
kmesh = [kdensity, kdensity, kdensity]
kpts = cell.make_kpts(kmesh, scaled_center=material["vb_scaled_center"])
mymf = scf.KRHF(cell, kpts=kpts, exxdiv="ewald")
mymf.chkfile = "data/{}".format(material["chk"])
mymf = mymf.density_fit()
mymf.with_df._cderi_to_save = "data/{}".format(material["cderi"])
ekrhf = mymf.kernel()
convergence = mymf.converged
mymf_data = dict([("ekrhf", float(ekrhf)),
                  ("convergence", bool(convergence))])
dump(mymf_data, "data/{}".format(material["ekrhf"]))
#INFO: ******************** input file end ********************


System: uname_result(system='Linux', node='g149', release='4.18.0-193.el8.x86_64', version='#1 SMP Fri Mar 27 14:35:58 UTC 2020', machine='x86_64')  Threads 32
Python 3.10.12 (main, Jul 29 2023, 11:27:27) [GCC 13.2.0]
numpy 1.25.1  scipy 1.10.1
Date: Fri Jan 26 19:25:35 2024
PySCF version 2.0.1
PySCF path  /burg/berkelbach/users/eav2136/builds/pyscf/projected-cvs/pyscf
GIT ORIG_HEAD 0bfbc692adf3ea63b8a509210433219cd1c472a2
GIT HEAD (branch projected-cvs) e14caaa2dddc538b9be2d86f01e5b456fc92da36

[ENV] PYSCF_TMPDIR /burg/ccce/users/eav2136/projects/core_level_spectroscopy/01_peommp2_cbe/tmp
[ENV] PYSCF_MAX_MEMORY 700000
[CONFIG] DEBUG = False
[CONFIG] MAX_MEMORY = 700000
[CONFIG] TMPDIR = /burg/ccce/users/eav2136/projects/core_level_spectroscopy/01_peommp2_cbe/tmp
[CONFIG] UNIT = angstrom
[CONFIG] VERBOSE = 3
[CONFIG] conf_file = None
[INPUT] verbose = 7
[INPUT] max_memory = 700000 
[INPUT] num. atoms = 4
[INPUT] num. electrons = 40
[INPUT] charge = 0
[INPUT] spin (= nelec alpha-beta = 2S) = 0
[INPUT] symmetry False subgroup None
[INPUT] Mole.unit = B
[INPUT]  1 Al     0.000000000000   0.000000000000   0.000000000000 AA    0.000000000000   0.000000000000   0.000000000000 Bohr
[INPUT]  2 N      0.000000000000   1.795559208370   0.597603705456 AA    0.000000000000   3.393115144260   1.129307334337 Bohr
[INPUT]  3 Al     0.000000000000   1.795559208370   2.489999821373 AA    0.000000000000   3.393115144260   4.705417712610 Bohr
[INPUT]  4 N      0.000000000000   0.000000000000   3.087603526828 AA    0.000000000000   0.000000000000   5.834725046947 Bohr
[INPUT] ---------------- BASIS SET ---------------- 
[INPUT] l, kappa, [nprim/nctr], expnt,             c_1 c_2 ...
[INPUT] Al
[INPUT] 0    0    [13   /3   ]  205500            6.78836e-05 -1.76377e-05 4.07315e-06
                                30780             0.000527149 -0.000137195 3.16566e-05
                                7006              0.00276203 -0.00071891 0.000166116
                                1985              0.0114728 -0.00301146 0.000694992
                                649.1             0.0398188 -0.0106014 0.00245511
                                235               0.11504 -0.0321345 0.00744598
                                91.62             0.260887 -0.0803156 0.0188253
                                37.67             0.396386 -0.156794 0.0372772
                                15.91             0.284597 -0.168376 0.0419496
                                5.85              0.0444583 0.126879 -0.0354375
                                2.542             -0.00489838 0.561494 -0.175132
                                1.057             0.00261253 0.436613 -0.276203
                                0.1455            0.000722068 -0.0114563 0.652809
[INPUT] 0    0    [1    /1   ]  0.2931               1
[INPUT] 0    0    [1    /1   ]  0.0565               1
[INPUT] 1    0    [7    /2   ]  444.4             0.00162786 -0.000286341
                                105.1             0.0130687 -0.00242308
                                33.47             0.0612341 -0.0108658
                                12.33             0.18787 -0.0364307
                                4.869             0.360452 -0.0641074
                                1.961             0.408454 -0.0972239
                                0.1888            0.00976514 0.503448
[INPUT] 1    0    [1    /1   ]  0.7834               1
[INPUT] 1    0    [1    /1   ]  0.05557              1
[INPUT] 2    0    [1    /1   ]  0.109                1
[INPUT] 2    0    [1    /1   ]  0.333                1
[INPUT] 3    0    [1    /1   ]  0.244                1
[INPUT] 0    0    [1    /1   ]  7.488                1
[INPUT] 0    0    [1    /1   ]  1.272                1
[INPUT] 1    0    [1    /1   ]  2.202                1
[INPUT] 1    0    [1    /1   ]  5.548                1
[INPUT] 2    0    [1    /1   ]  2.634                1
[INPUT] 2    0    [1    /1   ]  8.646                1
[INPUT] 3    0    [1    /1   ]  5.686                1
[INPUT] N
[INPUT] 0    0    [8    /2   ]  11420             0.000523 -0.000115
                                1712              0.004045 -0.000895
                                389.3             0.020775 -0.004624
                                110               0.080727 -0.018528
                                35.57             0.233074 -0.057339
                                12.54             0.433501 -0.132076
                                4.644             0.347472 -0.17251
                                0.5118            -0.008508 0.599944
[INPUT] 0    0    [1    /1   ]  1.293                1
[INPUT] 0    0    [1    /1   ]  0.1787               1
[INPUT] 1    0    [3    /1   ]  26.63             0.01467
                                5.948             0.091764
                                1.742             0.298683
[INPUT] 1    0    [1    /1   ]  0.555                1
[INPUT] 1    0    [1    /1   ]  0.1725               1
[INPUT] 2    0    [1    /1   ]  1.654                1
[INPUT] 2    0    [1    /1   ]  0.469                1
[INPUT] 3    0    [1    /1   ]  1.093                1
[INPUT] 0    0    [1    /1   ]  5.952                1
[INPUT] 0    0    [1    /1   ]  16.201               1
[INPUT] 1    0    [1    /1   ]  11.871               1
[INPUT] 1    0    [1    /1   ]  44.849               1
[INPUT] 2    0    [1    /1   ]  14.2                 1

Ewald components = 1.30435514859409e-35, -627.49757153652, 488.979720419325
nuclear repulsion = -138.517851117195
number of shells = 60
number of NR pGTOs = 278
number of NR cGTOs = 204
basis = ccpcvtz
ecp = {}
bas 0, expnt(s) = [2.055e+05 3.078e+04 7.006e+03 1.985e+03 6.491e+02 2.350e+02 9.162e+01
 3.767e+01 1.591e+01 5.850e+00 2.542e+00 1.057e+00 1.455e-01]
bas 1, expnt(s) = [0.2931]
bas 2, expnt(s) = [0.0565]
bas 3, expnt(s) = [4.444e+02 1.051e+02 3.347e+01 1.233e+01 4.869e+00 1.961e+00 1.888e-01]
bas 4, expnt(s) = [0.7834]
bas 5, expnt(s) = [0.05557]
bas 6, expnt(s) = [0.109]
bas 7, expnt(s) = [0.333]
bas 8, expnt(s) = [0.244]
bas 9, expnt(s) = [7.488]
bas 10, expnt(s) = [1.272]
bas 11, expnt(s) = [2.202]
bas 12, expnt(s) = [5.548]
bas 13, expnt(s) = [2.634]
bas 14, expnt(s) = [8.646]
bas 15, expnt(s) = [5.686]
bas 16, expnt(s) = [1.142e+04 1.712e+03 3.893e+02 1.100e+02 3.557e+01 1.254e+01 4.644e+00
 5.118e-01]
bas 17, expnt(s) = [1.293]
bas 18, expnt(s) = [0.1787]
bas 19, expnt(s) = [26.63   5.948  1.742]
bas 20, expnt(s) = [0.555]
bas 21, expnt(s) = [0.1725]
bas 22, expnt(s) = [1.654]
bas 23, expnt(s) = [0.469]
bas 24, expnt(s) = [1.093]
bas 25, expnt(s) = [5.952]
bas 26, expnt(s) = [16.201]
bas 27, expnt(s) = [11.871]
bas 28, expnt(s) = [44.849]
bas 29, expnt(s) = [14.2]
bas 30, expnt(s) = [2.055e+05 3.078e+04 7.006e+03 1.985e+03 6.491e+02 2.350e+02 9.162e+01
 3.767e+01 1.591e+01 5.850e+00 2.542e+00 1.057e+00 1.455e-01]
bas 31, expnt(s) = [0.2931]
bas 32, expnt(s) = [0.0565]
bas 33, expnt(s) = [4.444e+02 1.051e+02 3.347e+01 1.233e+01 4.869e+00 1.961e+00 1.888e-01]
bas 34, expnt(s) = [0.7834]
bas 35, expnt(s) = [0.05557]
bas 36, expnt(s) = [0.109]
bas 37, expnt(s) = [0.333]
bas 38, expnt(s) = [0.244]
bas 39, expnt(s) = [7.488]
bas 40, expnt(s) = [1.272]
bas 41, expnt(s) = [2.202]
bas 42, expnt(s) = [5.548]
bas 43, expnt(s) = [2.634]
bas 44, expnt(s) = [8.646]
bas 45, expnt(s) = [5.686]
bas 46, expnt(s) = [1.142e+04 1.712e+03 3.893e+02 1.100e+02 3.557e+01 1.254e+01 4.644e+00
 5.118e-01]
bas 47, expnt(s) = [1.293]
bas 48, expnt(s) = [0.1787]
bas 49, expnt(s) = [26.63   5.948  1.742]
bas 50, expnt(s) = [0.555]
bas 51, expnt(s) = [0.1725]
bas 52, expnt(s) = [1.654]
bas 53, expnt(s) = [0.469]
bas 54, expnt(s) = [1.093]
bas 55, expnt(s) = [5.952]
bas 56, expnt(s) = [16.201]
bas 57, expnt(s) = [11.871]
bas 58, expnt(s) = [44.849]
bas 59, expnt(s) = [14.2]
CPU time:         1.11
lattice vectors  a1 [5.877047826, 0.000000000, 0.000000000]
                 a2 [-2.938523913, 5.089672716, 0.000000000]
                 a3 [0.000000000, 0.000000000, 9.410835425]
dimension = 3
low_dim_ft_type = None
Cell volume = 281.499
rcut = 32.79019015615983 (nimgs = [7 7 4])
lattice sum = 1229 cells
precision = 1e-08
pseudo = None
ke_cutoff = 433261.4263657037
    = [1509 1509 2789] mesh (6350778909 PWs)


******** <class 'pyscf.pbc.scf.khf.KRHF'> ********
method = KRHF-KSCF-RHF-SCF-RHF
initial guess = minao
damping factor = 0
level_shift factor = 0
DIIS = <class 'pyscf.scf.diis.CDIIS'>
diis_start_cycle = 1
diis_space = 8
SCF conv_tol = 1e-07
SCF conv_tol_grad = None
SCF max_cycles = 50
direct_scf = True
direct_scf_tol = 1e-13
chkfile to save SCF result = data/aln_ccpcvtz_k4_N_1s_nvir_act6.chk
max_memory 700000 MB (current use 118 MB)


******** PBC SCF flags ********
N kpts = 64
kpts = [[0.         0.         0.        ]
 [0.         0.         0.16691359]
 [0.         0.         0.33382718]
 [0.         0.         0.50074077]
 [0.         0.30862423 0.        ]
 [0.         0.30862423 0.16691359]
 [0.         0.30862423 0.33382718]
 [0.         0.30862423 0.50074077]
 [0.         0.61724846 0.        ]
 [0.         0.61724846 0.16691359]
 [0.         0.61724846 0.33382718]
 [0.         0.61724846 0.50074077]
 [0.         0.92587269 0.        ]
 [0.         0.92587269 0.16691359]
 [0.         0.92587269 0.33382718]
 [0.         0.92587269 0.50074077]
 [0.26727642 0.15431212 0.        ]
 [0.26727642 0.15431212 0.16691359]
 [0.26727642 0.15431212 0.33382718]
 [0.26727642 0.15431212 0.50074077]
 [0.26727642 0.46293635 0.        ]
 [0.26727642 0.46293635 0.16691359]
 [0.26727642 0.46293635 0.33382718]
 [0.26727642 0.46293635 0.50074077]
 [0.26727642 0.77156058 0.        ]
 [0.26727642 0.77156058 0.16691359]
 [0.26727642 0.77156058 0.33382718]
 [0.26727642 0.77156058 0.50074077]
 [0.26727642 1.08018481 0.        ]
 [0.26727642 1.08018481 0.16691359]
 [0.26727642 1.08018481 0.33382718]
 [0.26727642 1.08018481 0.50074077]
 [0.53455285 0.30862423 0.        ]
 [0.53455285 0.30862423 0.16691359]
 [0.53455285 0.30862423 0.33382718]
 [0.53455285 0.30862423 0.50074077]
 [0.53455285 0.61724846 0.        ]
 [0.53455285 0.61724846 0.16691359]
 [0.53455285 0.61724846 0.33382718]
 [0.53455285 0.61724846 0.50074077]
 [0.53455285 0.92587269 0.        ]
 [0.53455285 0.92587269 0.16691359]
 [0.53455285 0.92587269 0.33382718]
 [0.53455285 0.92587269 0.50074077]
 [0.53455285 1.23449692 0.        ]
 [0.53455285 1.23449692 0.16691359]
 [0.53455285 1.23449692 0.33382718]
 [0.53455285 1.23449692 0.50074077]
 [0.80182927 0.46293635 0.        ]
 [0.80182927 0.46293635 0.16691359]
 [0.80182927 0.46293635 0.33382718]
 [0.80182927 0.46293635 0.50074077]
 [0.80182927 0.77156058 0.        ]
 [0.80182927 0.77156058 0.16691359]
 [0.80182927 0.77156058 0.33382718]
 [0.80182927 0.77156058 0.50074077]
 [0.80182927 1.08018481 0.        ]
 [0.80182927 1.08018481 0.16691359]
 [0.80182927 1.08018481 0.33382718]
 [0.80182927 1.08018481 0.50074077]
 [0.80182927 1.38880904 0.        ]
 [0.80182927 1.38880904 0.16691359]
 [0.80182927 1.38880904 0.33382718]
 [0.80182927 1.38880904 0.50074077]]
Exchange divergence treatment (exxdiv) = ewald
Monkhorst pack size [4 4 4] ew_eta 0.6710327124888426 ew_cut 10.468088376274878
Ewald components = 1.93298039817556e-111, -0.378783297770942, 0.330352519723757
    madelung (= occupied orbital energy shift) = 0.09686155609436908
    Total energy shift due to Ewald probe charge = -1/2 * Nelec*madelung = -1.93723112189
DF object = <pyscf.pbc.df.df.GDF object at 0x155535b8a5f0>
Set gradient conv threshold to 0.000316228
Big error detected in the electron number of initial guess density matrix (Ne/cell = 39.9983)!
  This can cause huge error in Fock matrix and lead to instability in SCF for low-dimensional systems.
  DM is normalized wrt the number of electrons 40.0
    CPU time for vnuc pass1: analytic int   5947.90 sec, wall time    188.45 sec
    CPU time for contracting Vnuc [0:896]    468.72 sec, wall time     16.86 sec
    CPU time for contracting Vnuc    468.72 sec, wall time     16.86 sec
    CPU time for get_nuc   6419.09 sec, wall time    205.39 sec


******** <class 'pyscf.pbc.df.df.GDF'> ********
mesh = [9, 9, 15] (1215 PWs)
auxbasis = None
eta = 0.2
exp_to_discard = None
_cderi_to_save = data/aln_ccpcvtz_k4_N_1s_nvir_act6_cderi.h5
len(kpts) = 64
    kpts = [[0.         0.         0.        ]
 [0.         0.         0.16691359]
 [0.         0.         0.33382718]
 [0.         0.         0.50074077]
 [0.         0.30862423 0.        ]
 [0.         0.30862423 0.16691359]
 [0.         0.30862423 0.33382718]
 [0.         0.30862423 0.50074077]
 [0.         0.61724846 0.        ]
 [0.         0.61724846 0.16691359]
 [0.         0.61724846 0.33382718]
 [0.         0.61724846 0.50074077]
 [0.         0.92587269 0.        ]
 [0.         0.92587269 0.16691359]
 [0.         0.92587269 0.33382718]
 [0.         0.92587269 0.50074077]
 [0.26727642 0.15431212 0.        ]
 [0.26727642 0.15431212 0.16691359]
 [0.26727642 0.15431212 0.33382718]
 [0.26727642 0.15431212 0.50074077]
 [0.26727642 0.46293635 0.        ]
 [0.26727642 0.46293635 0.16691359]
 [0.26727642 0.46293635 0.33382718]
 [0.26727642 0.46293635 0.50074077]
 [0.26727642 0.77156058 0.        ]
 [0.26727642 0.77156058 0.16691359]
 [0.26727642 0.77156058 0.33382718]
 [0.26727642 0.77156058 0.50074077]
 [0.26727642 1.08018481 0.        ]
 [0.26727642 1.08018481 0.16691359]
 [0.26727642 1.08018481 0.33382718]
 [0.26727642 1.08018481 0.50074077]
 [0.53455285 0.30862423 0.        ]
 [0.53455285 0.30862423 0.16691359]
 [0.53455285 0.30862423 0.33382718]
 [0.53455285 0.30862423 0.50074077]
 [0.53455285 0.61724846 0.        ]
 [0.53455285 0.61724846 0.16691359]
 [0.53455285 0.61724846 0.33382718]
 [0.53455285 0.61724846 0.50074077]
 [0.53455285 0.92587269 0.        ]
 [0.53455285 0.92587269 0.16691359]
 [0.53455285 0.92587269 0.33382718]
 [0.53455285 0.92587269 0.50074077]
 [0.53455285 1.23449692 0.        ]
 [0.53455285 1.23449692 0.16691359]
 [0.53455285 1.23449692 0.33382718]
 [0.53455285 1.23449692 0.50074077]
 [0.80182927 0.46293635 0.        ]
 [0.80182927 0.46293635 0.16691359]
 [0.80182927 0.46293635 0.33382718]
 [0.80182927 0.46293635 0.50074077]
 [0.80182927 0.77156058 0.        ]
 [0.80182927 0.77156058 0.16691359]
 [0.80182927 0.77156058 0.33382718]
 [0.80182927 0.77156058 0.50074077]
 [0.80182927 1.08018481 0.        ]
 [0.80182927 1.08018481 0.16691359]
 [0.80182927 1.08018481 0.33382718]
 [0.80182927 1.08018481 0.50074077]
 [0.80182927 1.38880904 0.        ]
 [0.80182927 1.38880904 0.16691359]
 [0.80182927 1.38880904 0.33382718]
 [0.80182927 1.38880904 0.50074077]]
Even tempered Gaussians are generated as DF auxbasis for  Al N
  ETB auxbasis for Al  [[0, [7405.568, 1]], [0, [3702.784, 1]], [0, [1851.392, 1]], [0, [925.696, 1]], [0, [462.848, 1]], [0, [231.424, 1]], [0, [115.712, 1]], [0, [57.856, 1]], [0, [28.928, 1]], [0, [14.464, 1]], [0, [7.232, 1]], [0, [3.616, 1]], [0, [1.808, 1]], [0, [0.904, 1]], [0, [0.452, 1]], [0, [0.226, 1]], [0, [0.113, 1]], [1, [1836.0916571679966, 1]], [1, [918.0458285839983, 1]], [1, [459.02291429199914, 1]], [1, [229.51145714599957, 1]], [1, [114.75572857299979, 1]], [1, [57.37786428649989, 1]], [1, [28.688932143249946, 1]], [1, [14.344466071624973, 1]], [1, [7.172233035812487, 1]], [1, [3.5861165179062433, 1]], [1, [1.7930582589531217, 1]], [1, [0.8965291294765608, 1]], [1, [0.4482645647382804, 1]], [1, [0.2241322823691402, 1]], [1, [0.1120661411845701, 1]], [2, [455.22944, 1]], [2, [227.61472, 1]], [2, [113.80736, 1]], [2, [56.90368, 1]], [2, [28.45184, 1]], [2, [14.22592, 1]], [2, [7.11296, 1]], [2, [3.55648, 1]], [2, [1.77824, 1]], [2, [0.88912, 1]], [2, [0.44456, 1]], [2, [0.22228, 1]], [2, [0.11114, 1]], [3, [79.69542739003286, 1]], [3, [39.84771369501643, 1]], [3, [19.923856847508215, 1]], [3, [9.961928423754108, 1]], [3, [4.980964211877054, 1]], [3, [2.490482105938527, 1]], [3, [1.2452410529692635, 1]], [3, [0.6226205264846317, 1]], [3, [0.31131026324231587, 1]], [3, [0.15565513162115793, 1]], [4, [13.952, 1]], [4, [6.976, 1]], [4, [3.488, 1]], [4, [1.744, 1]], [4, [0.872, 1]], [4, [0.436, 1]], [4, [0.218, 1]]]
  ETB auxbasis for N  [[0, [2927.8208, 1]], [0, [1463.9104, 1]], [0, [731.9552, 1]], [0, [365.9776, 1]], [0, [182.9888, 1]], [0, [91.4944, 1]], [0, [45.7472, 1]], [0, [22.8736, 1]], [0, [11.4368, 1]], [0, [5.7184, 1]], [0, [2.8592, 1]], [0, [1.4296, 1]], [0, [0.7148, 1]], [0, [0.3574, 1]], [1, [359.572755541907, 1]], [1, [179.7863777709535, 1]], [1, [89.89318888547675, 1]], [1, [44.94659444273837, 1]], [1, [22.473297221369187, 1]], [1, [11.236648610684593, 1]], [1, [5.618324305342297, 1]], [1, [2.8091621526711483, 1]], [1, [1.4045810763355742, 1]], [1, [0.7022905381677871, 1]], [1, [0.35114526908389354, 1]], [2, [176.64, 1]], [2, [88.32, 1]], [2, [44.16, 1]], [2, [22.08, 1]], [2, [11.04, 1]], [2, [5.52, 1]], [2, [2.76, 1]], [2, [1.38, 1]], [2, [0.69, 1]], [2, [0.345, 1]], [3, [36.40750691821674, 1]], [3, [18.20375345910837, 1]], [3, [9.101876729554185, 1]], [3, [4.5509383647770925, 1]], [3, [2.2754691823885462, 1]], [3, [1.1377345911942731, 1]], [3, [0.5688672955971366, 1]], [4, [15.008, 1]], [4, [7.504, 1]], [4, [3.752, 1]], [4, [1.876, 1]], [4, [0.938, 1]]]
num shells = 218, num cGTOs = 902
Drop 0 primitive fitting functions
make aux basis, num shells = 218, num cGTOs = 902
auxcell.rcut 17.24916021658648
make compensating basis, num shells = 20, num cGTOs = 100
chgcell.rcut 11.482117703874595
    CPU time for 3c2e 341704.15 sec, wall time  11003.01 sec
Num uniq kpts 172
uniq_kpts [[ 0.          0.          0.        ]
 [ 0.          0.         -0.16691359]
 [ 0.          0.         -0.33382718]
 [ 0.          0.         -0.50074077]
 [ 0.         -0.30862423  0.        ]
 [ 0.         -0.30862423  0.16691359]
 [ 0.         -0.30862423  0.33382718]
 [ 0.         -0.30862423  0.50074077]
 [ 0.         -0.30862423 -0.16691359]
 [ 0.         -0.30862423 -0.33382718]
 [ 0.         -0.30862423 -0.50074077]
 [ 0.         -0.61724846  0.        ]
 [ 0.         -0.61724846  0.16691359]
 [ 0.         -0.61724846  0.33382718]
 [ 0.         -0.61724846  0.50074077]
 [ 0.         -0.61724846 -0.16691359]
 [ 0.         -0.61724846 -0.33382718]
 [ 0.         -0.61724846 -0.50074077]
 [ 0.         -0.92587269  0.        ]
 [ 0.         -0.92587269  0.16691359]
 [ 0.         -0.92587269  0.33382718]
 [ 0.         -0.92587269  0.50074077]
 [ 0.         -0.92587269 -0.16691359]
 [ 0.         -0.92587269 -0.33382718]
 [ 0.         -0.92587269 -0.50074077]
 [-0.26727642 -0.15431212  0.        ]
 [-0.26727642 -0.15431212  0.16691359]
 [-0.26727642 -0.15431212  0.33382718]
 [-0.26727642 -0.15431212  0.50074077]
 [-0.26727642  0.15431212  0.        ]
 [-0.26727642  0.15431212  0.16691359]
 [-0.26727642  0.15431212  0.33382718]
 [-0.26727642  0.15431212  0.50074077]
 [-0.26727642  0.46293635  0.        ]
 [-0.26727642  0.46293635  0.16691359]
 [-0.26727642  0.46293635  0.33382718]
 [-0.26727642  0.46293635  0.50074077]
 [-0.26727642  0.77156058  0.        ]
 [-0.26727642  0.77156058  0.16691359]
 [-0.26727642  0.77156058  0.33382718]
 [-0.26727642  0.77156058  0.50074077]
 [-0.26727642 -0.15431212 -0.16691359]
 [-0.26727642  0.15431212 -0.16691359]
 [-0.26727642  0.46293635 -0.16691359]
 [-0.26727642  0.77156058 -0.16691359]
 [-0.26727642 -0.15431212 -0.33382718]
 [-0.26727642  0.15431212 -0.33382718]
 [-0.26727642  0.46293635 -0.33382718]
 [-0.26727642  0.77156058 -0.33382718]
 [-0.26727642 -0.15431212 -0.50074077]
 [-0.26727642  0.15431212 -0.50074077]
 [-0.26727642  0.46293635 -0.50074077]
 [-0.26727642  0.77156058 -0.50074077]
 [-0.26727642 -0.46293635  0.        ]
 [-0.26727642 -0.46293635  0.16691359]
 [-0.26727642 -0.46293635  0.33382718]
 [-0.26727642 -0.46293635  0.50074077]
 [-0.26727642 -0.46293635 -0.16691359]
 [-0.26727642 -0.46293635 -0.33382718]
 [-0.26727642 -0.46293635 -0.50074077]
 [-0.26727642 -0.77156058  0.        ]
 [-0.26727642 -0.77156058  0.16691359]
 [-0.26727642 -0.77156058  0.33382718]
 [-0.26727642 -0.77156058  0.50074077]
 [-0.26727642 -0.77156058 -0.16691359]
 [-0.26727642 -0.77156058 -0.33382718]
 [-0.26727642 -0.77156058 -0.50074077]
 [-0.26727642 -1.08018481  0.        ]
 [-0.26727642 -1.08018481  0.16691359]
 [-0.26727642 -1.08018481  0.33382718]
 [-0.26727642 -1.08018481  0.50074077]
 [-0.26727642 -1.08018481 -0.16691359]
 [-0.26727642 -1.08018481 -0.33382718]
 [-0.26727642 -1.08018481 -0.50074077]
 [-0.53455285 -0.30862423  0.        ]
 [-0.53455285 -0.30862423  0.16691359]
 [-0.53455285 -0.30862423  0.33382718]
 [-0.53455285 -0.30862423  0.50074077]
 [-0.53455285  0.          0.        ]
 [-0.53455285  0.          0.16691359]
 [-0.53455285  0.          0.33382718]
 [-0.53455285  0.          0.50074077]
 [-0.53455285  0.30862423  0.        ]
 [-0.53455285  0.30862423  0.16691359]
 [-0.53455285  0.30862423  0.33382718]
 [-0.53455285  0.30862423  0.50074077]
 [-0.53455285  0.61724846  0.        ]
 [-0.53455285  0.61724846  0.16691359]
 [-0.53455285  0.61724846  0.33382718]
 [-0.53455285  0.61724846  0.50074077]
 [-0.53455285 -0.30862423 -0.16691359]
 [-0.53455285  0.         -0.16691359]
 [-0.53455285  0.30862423 -0.16691359]
 [-0.53455285  0.61724846 -0.16691359]
 [-0.53455285 -0.30862423 -0.33382718]
 [-0.53455285  0.         -0.33382718]
 [-0.53455285  0.30862423 -0.33382718]
 [-0.53455285  0.61724846 -0.33382718]
 [-0.53455285 -0.30862423 -0.50074077]
 [-0.53455285  0.         -0.50074077]
 [-0.53455285  0.30862423 -0.50074077]
 [-0.53455285  0.61724846 -0.50074077]
 [-0.53455285 -0.61724846  0.        ]
 [-0.53455285 -0.61724846  0.16691359]
 [-0.53455285 -0.61724846  0.33382718]
 [-0.53455285 -0.61724846  0.50074077]
 [-0.53455285 -0.61724846 -0.16691359]
 [-0.53455285 -0.61724846 -0.33382718]
 [-0.53455285 -0.61724846 -0.50074077]
 [-0.53455285 -0.92587269  0.        ]
 [-0.53455285 -0.92587269  0.16691359]
 [-0.53455285 -0.92587269  0.33382718]
 [-0.53455285 -0.92587269  0.50074077]
 [-0.53455285 -0.92587269 -0.16691359]
 [-0.53455285 -0.92587269 -0.33382718]
 [-0.53455285 -0.92587269 -0.50074077]
 [-0.53455285 -1.23449692  0.        ]
 [-0.53455285 -1.23449692  0.16691359]
 [-0.53455285 -1.23449692  0.33382718]
 [-0.53455285 -1.23449692  0.50074077]
 [-0.53455285 -1.23449692 -0.16691359]
 [-0.53455285 -1.23449692 -0.33382718]
 [-0.53455285 -1.23449692 -0.50074077]
 [-0.80182927 -0.46293635  0.        ]
 [-0.80182927 -0.46293635  0.16691359]
 [-0.80182927 -0.46293635  0.33382718]
 [-0.80182927 -0.46293635  0.50074077]
 [-0.80182927 -0.15431212  0.        ]
 [-0.80182927 -0.15431212  0.16691359]
 [-0.80182927 -0.15431212  0.33382718]
 [-0.80182927 -0.15431212  0.50074077]
 [-0.80182927  0.15431212  0.        ]
 [-0.80182927  0.15431212  0.16691359]
 [-0.80182927  0.15431212  0.33382718]
 [-0.80182927  0.15431212  0.50074077]
 [-0.80182927  0.46293635  0.        ]
 [-0.80182927  0.46293635  0.16691359]
 [-0.80182927  0.46293635  0.33382718]
 [-0.80182927  0.46293635  0.50074077]
 [-0.80182927 -0.46293635 -0.16691359]
 [-0.80182927 -0.15431212 -0.16691359]
 [-0.80182927  0.15431212 -0.16691359]
 [-0.80182927  0.46293635 -0.16691359]
 [-0.80182927 -0.46293635 -0.33382718]
 [-0.80182927 -0.15431212 -0.33382718]
 [-0.80182927  0.15431212 -0.33382718]
 [-0.80182927  0.46293635 -0.33382718]
 [-0.80182927 -0.46293635 -0.50074077]
 [-0.80182927 -0.15431212 -0.50074077]
 [-0.80182927  0.15431212 -0.50074077]
 [-0.80182927  0.46293635 -0.50074077]
 [-0.80182927 -0.77156058  0.        ]
 [-0.80182927 -0.77156058  0.16691359]
 [-0.80182927 -0.77156058  0.33382718]
 [-0.80182927 -0.77156058  0.50074077]
 [-0.80182927 -0.77156058 -0.16691359]
 [-0.80182927 -0.77156058 -0.33382718]
 [-0.80182927 -0.77156058 -0.50074077]
 [-0.80182927 -1.08018481  0.        ]
 [-0.80182927 -1.08018481  0.16691359]
 [-0.80182927 -1.08018481  0.33382718]
 [-0.80182927 -1.08018481  0.50074077]
 [-0.80182927 -1.08018481 -0.16691359]
 [-0.80182927 -1.08018481 -0.33382718]
 [-0.80182927 -1.08018481 -0.50074077]
 [-0.80182927 -1.38880904  0.        ]
 [-0.80182927 -1.38880904  0.16691359]
 [-0.80182927 -1.38880904  0.33382718]
 [-0.80182927 -1.38880904  0.50074077]
 [-0.80182927 -1.38880904 -0.16691359]
 [-0.80182927 -1.38880904 -0.33382718]
 [-0.80182927 -1.38880904 -0.50074077]]
max_memory 696863.606784 (MB)  blocksize 17386816
Cholesky decomposition for j2c at kpt 0
Symmetry pattern (k - [0. 0. 0.])*a= 2n pi
    make_kpt for uniq_kptji_ids [0]
kpt = [0. 0. 0.]
adapted_ji_idx = [   0    2    5    9   14   20   27   35   44   54   65   77   90  104
  119  135  152  170  189  209  230  252  275  299  324  350  377  405
  434  464  495  527  560  594  629  665  702  740  779  819  860  902
  945  989 1034 1080 1127 1175 1224 1274 1325 1377 1430 1484 1539 1595
 1652 1710 1769 1829 1890 1952 2015 2079]
memory = 425.508864
int3c2e [1/1], AO [0:60], ncol = 20910
Symmetry pattern (k + [0. 0. 0.])*a= 2n pi
    make_kpt for [0]
Cholesky decomposition for j2c at kpt 1
Symmetry pattern (k - [ 0.          0.         -0.16691359])*a= 2n pi
    make_kpt for uniq_kptji_ids [1]
kpt = [ 0.          0.         -0.16691359]
adapted_ji_idx = [   1    4    8   19   26   34   53   64   76  103  118  134  169  188
  208  251  274  298  349  376  404  463  494  526  593  628  664  739
  778  818  901  944  988 1079 1126 1174 1273 1324 1376 1483 1538 1594
 1709 1768 1828 1951 2014 2078]
memory = 461.381632
int3c2e [1/1], AO [0:60], ncol = 41616
Symmetry pattern (k + [ 0.          0.         -0.16691359])*a= 2n pi
    make_kpt for [3]
kpt = [ 0.          0.         -0.50074077]
adapted_ji_idx = [   6   32   74  132  206  296  402  524  662  816  986 1172 1374 1592
 1826 2076]
memory = 1450.074112
int3c2e [1/1], AO [0:60], ncol = 41616
Cholesky decomposition for j2c at kpt 2
Symmetry pattern (k - [ 0.          0.         -0.33382718])*a= 2n pi
    make_kpt for uniq_kptji_ids [2]
kpt = [ 0.          0.         -0.33382718]
adapted_ji_idx = [   3    7   25   33   63   75  117  133  187  207  273  297  375  403
  493  525  627  663  777  817  943  987 1125 1173 1323 1375 1537 1593
 1767 1827 2013 2077]
memory = 1467.170816
int3c2e [1/1], AO [0:60], ncol = 41616
Symmetry pattern (k + [ 0.          0.         -0.33382718])*a= 2n pi
    make_kpt for [2]
Cholesky decomposition for j2c at kpt 4
DF metric linear dependency for kpt 4
cond = 5.144e+17, drop 48 bfns
Symmetry pattern (k - [ 0.         -0.30862423  0.        ])*a= 2n pi
    make_kpt for uniq_kptji_ids [4]
kpt = [ 0.         -0.30862423  0.        ]
adapted_ji_idx = [  10   16   23   31   40   50   61   73   86  100  115  131  226  248
  271  295  320  346  373  401  430  460  491  523  698  736  775  815
  856  898  941  985 1030 1076 1123 1171 1426 1480 1535 1591 1648 1706
 1765 1825 1886 1948 2011 2075]
memory = 1495.453696
int3c2e [1/1], AO [0:60], ncol = 41616
Symmetry pattern (k + [ 0.         -0.30862423  0.        ])*a= 2n pi
    make_kpt for [18]
kpt = [ 0.         -0.92587269  0.        ]
adapted_ji_idx = [  78   92  107  123  422  452  483  515 1022 1068 1115 1163 1878 1940
 2003 2067]
memory = 1494.949888
int3c2e [1/1], AO [0:60], ncol = 41616
Cholesky decomposition for j2c at kpt 5
DF metric linear dependency for kpt 5
cond = 7.773e+17, drop 48 bfns
Symmetry pattern (k - [ 0.         -0.30862423  0.16691359])*a= 2n pi
    make_kpt for uniq_kptji_ids [ 5 10]
kpt = [ 0.         -0.30862423  0.16691359]
adapted_ji_idx = [  11   17   24   41   51   62   87  101  116  227  249  272  321  347
  374  431  461  492  699  737  776  857  899  942 1031 1077 1124 1427
 1481 1536 1649 1707 1766 1887 1949 2012]
memory = 1632.858112
int3c2e [1/1], AO [0:60], ncol = 41616
kpt = [ 0.         -0.30862423 -0.50074077]
adapted_ji_idx = [  28   70  128  292  398  520  812  982 1168 1588 1822 2072]
memory = 1828.687872
int3c2e [1/1], AO [0:60], ncol = 41616
Symmetry pattern (k + [ 0.         -0.30862423  0.16691359])*a= 2n pi
    make_kpt for [21 22]
kpt = [ 0.         -0.92587269  0.50074077]
adapted_ji_idx = [  81  425 1025 1881]
memory = 1706.655744
int3c2e [1/1], AO [0:60], ncol = 41616
kpt = [ 0.         -0.92587269 -0.16691359]
adapted_ji_idx = [  91  106  122  451  482  514 1067 1114 1162 1939 2002 2066]
memory = 1728.974848
int3c2e [1/1], AO [0:60], ncol = 41616
Cholesky decomposition for j2c at kpt 6
Symmetry pattern (k - [ 0.         -0.30862423  0.33382718])*a= 2n pi
    make_kpt for uniq_kptji_ids [6 9]
kpt = [ 0.         -0.30862423  0.33382718]
adapted_ji_idx = [  12   18   42   52   88  102  228  250  322  348  432  462  700  738
  858  900 1032 1078 1428 1482 1650 1708 1888 1950]
memory = 1733.38624
int3c2e [1/1], AO [0:60], ncol = 41616
kpt = [ 0.         -0.30862423 -0.33382718]
adapted_ji_idx = [  21   29   59   71  113  129  269  293  371  399  489  521  773  813
  939  983 1121 1169 1533 1589 1763 1823 2009 2073]
memory = 1776.254976
int3c2e [1/1], AO [0:60], ncol = 41616
Symmetry pattern (k + [ 0.         -0.30862423  0.33382718])*a= 2n pi
    make_kpt for [20 23]
kpt = [ 0.         -0.92587269  0.33382718]
adapted_ji_idx = [  80   94  424  454 1024 1070 1880 1942]
memory = 1776.590848
int3c2e [1/1], AO [0:60], ncol = 41616
kpt = [ 0.         -0.92587269 -0.33382718]
adapted_ji_idx = [ 105  121  481  513 1113 1161 2001 2065]
memory = 1776.582656
int3c2e [1/1], AO [0:60], ncol = 41616
Cholesky decomposition for j2c at kpt 7
DF metric linear dependency for kpt 7
cond = 5.169e+17, drop 48 bfns
Symmetry pattern (k - [ 0.         -0.30862423  0.50074077])*a= 2n pi
    make_kpt for uniq_kptji_ids [7 8]
kpt = [ 0.         -0.30862423  0.50074077]
adapted_ji_idx = [  13   43   89  229  323  433  701  859 1033 1429 1651 1889]
memory = 1789.861888
int3c2e [1/1], AO [0:60], ncol = 41616
kpt = [ 0.         -0.30862423 -0.16691359]
adapted_ji_idx = [  15   22   30   49   60   72   99  114  130  247  270  294  345  372
  400  459  490  522  735  774  814  897  940  984 1075 1122 1170 1479
 1534 1590 1705 1764 1824 1947 2010 2074]
memory = 1787.076608
int3c2e [1/1], AO [0:60], ncol = 41616
Symmetry pattern (k + [ 0.         -0.30862423  0.50074077])*a= 2n pi
    make_kpt for [19 24]
kpt = [ 0.         -0.92587269  0.16691359]
adapted_ji_idx = [  79   93  108  423  453  484 1023 1069 1116 1879 1941 2004]
memory = 1740.627968
int3c2e [1/1], AO [0:60], ncol = 41616
kpt = [ 0.         -0.92587269 -0.50074077]
adapted_ji_idx = [ 120  512 1160 2064]
memory = 1756.01664
int3c2e [1/1], AO [0:60], ncol = 41616
Cholesky decomposition for j2c at kpt 11
DF metric linear dependency for kpt 11
cond = -5.382e+16, drop 48 bfns
Symmetry pattern (k - [ 0.         -0.61724846  0.        ])*a= 2n pi
    make_kpt for uniq_kptji_ids [11]
kpt = [ 0.         -0.61724846  0.        ]
adapted_ji_idx = [  36   46   57   69   82   96  111  127  316  342  369  397  426  456
  487  519  852  894  937  981 1026 1072 1119 1167 1644 1702 1761 1821
 1882 1944 2007 2071]
memory = 1807.40096
int3c2e [1/1], AO [0:60], ncol = 41616
Symmetry pattern (k + [ 0.         -0.61724846  0.        ])*a= 2n pi
    make_kpt for [11]
Cholesky decomposition for j2c at kpt 12
DF metric linear dependency for kpt 12
cond = 1.159e+18, drop 48 bfns
Symmetry pattern (k - [ 0.         -0.61724846  0.16691359])*a= 2n pi
    make_kpt for uniq_kptji_ids [12 17]
kpt = [ 0.         -0.61724846  0.16691359]
adapted_ji_idx = [  37   47   58   83   97  112  317  343  370  427  457  488  853  895
  938 1027 1073 1120 1645 1703 1762 1883 1945 2008]
memory = 1822.12608
int3c2e [1/1], AO [0:60], ncol = 41616
kpt = [ 0.         -0.61724846 -0.50074077]
adapted_ji_idx = [  66  124  394  516  978 1164 1818 2068]
memory = 1822.109696
int3c2e [1/1], AO [0:60], ncol = 41616
Symmetry pattern (k + [ 0.         -0.61724846  0.16691359])*a= 2n pi
    make_kpt for [14 15]
kpt = [ 0.         -0.61724846  0.50074077]
adapted_ji_idx = [  39   85  319  429  855 1029 1647 1885]
memory = 1821.155328
int3c2e [1/1], AO [0:60], ncol = 41616
kpt = [ 0.         -0.61724846 -0.16691359]
adapted_ji_idx = [  45   56   68   95  110  126  341  368  396  455  486  518  893  936
  980 1071 1118 1166 1701 1760 1820 1943 2006 2070]
memory = 1821.515776
int3c2e [1/1], AO [0:60], ncol = 41616
Cholesky decomposition for j2c at kpt 13
Symmetry pattern (k - [ 0.         -0.61724846  0.33382718])*a= 2n pi
    make_kpt for uniq_kptji_ids [13 16]
kpt = [ 0.         -0.61724846  0.33382718]
adapted_ji_idx = [  38   48   84   98  318  344  428  458  854  896 1028 1074 1646 1704
 1884 1946]
memory = 1822.994432
int3c2e [1/1], AO [0:60], ncol = 41616
kpt = [ 0.         -0.61724846 -0.33382718]
adapted_ji_idx = [  55   67  109  125  367  395  485  517  935  979 1117 1165 1759 1819
 2005 2069]
memory = 1822.55616
int3c2e [1/1], AO [0:60], ncol = 41616
Symmetry pattern (k + [ 0.         -0.61724846  0.33382718])*a= 2n pi
    make_kpt for [13 16]
Cholesky decomposition for j2c at kpt 25
DF metric linear dependency for kpt 25
cond = 1.601e+18, drop 48 bfns
Symmetry pattern (k - [-0.26727642 -0.15431212  0.        ])*a= 2n pi
    make_kpt for uniq_kptji_ids [25]
kpt = [-0.26727642 -0.15431212  0.        ]
adapted_ji_idx = [ 136  154  173  193  214  236  259  283  308  334  361  389  418  448
  479  511  544  578  613  649  686  724  763  803  844  886  929  973
 1018 1064 1111 1159 1208 1258 1309 1361 1414 1468 1523 1579 1636 1694
 1753 1813 1874 1936 1999 2063]
memory = 1823.96928
int3c2e [1/1], AO [0:60], ncol = 41616
Symmetry pattern (k + [-0.26727642 -0.15431212  0.        ])*a= 2n pi
    make_kpt for [123]
kpt = [-0.80182927 -0.46293635  0.        ]
adapted_ji_idx = [1176 1226 1277 1329 1382 1436 1491 1547 1604 1662 1721 1781 1842 1904
 1967 2031]
memory = 1882.632192
int3c2e [1/1], AO [0:60], ncol = 41616
Cholesky decomposition for j2c at kpt 26
DF metric linear dependency for kpt 26
cond = 6.524e+17, drop 48 bfns
Symmetry pattern (k - [-0.26727642 -0.15431212  0.16691359])*a= 2n pi
    make_kpt for uniq_kptji_ids [26 49]
kpt = [-0.26727642 -0.15431212  0.16691359]
adapted_ji_idx = [ 137  155  174  215  237  260  309  335  362  419  449  480  545  579
  614  687  725  764  845  887  930 1019 1065 1112 1209 1259 1310 1415
 1469 1524 1637 1695 1754 1875 1937 2000]
memory = 1883.97568
int3c2e [1/1], AO [0:60], ncol = 41616
kpt = [-0.26727642 -0.15431212 -0.50074077]
adapted_ji_idx = [ 190  280  386  508  646  800  970 1156 1358 1576 1810 2060]
memory = 1930.805248
int3c2e [1/1], AO [0:60], ncol = 41616
Symmetry pattern (k + [-0.26727642 -0.15431212  0.16691359])*a= 2n pi
    make_kpt for [126 139]
kpt = [-0.80182927 -0.46293635  0.50074077]
adapted_ji_idx = [1179 1385 1607 1845]
memory = 1817.206784
int3c2e [1/1], AO [0:60], ncol = 41616
kpt = [-0.80182927 -0.46293635 -0.16691359]
adapted_ji_idx = [1225 1276 1328 1435 1490 1546 1661 1720 1780 1903 1966 2030]
memory = 1835.036672
int3c2e [1/1], AO [0:60], ncol = 41616
Cholesky decomposition for j2c at kpt 27
Symmetry pattern (k - [-0.26727642 -0.15431212  0.33382718])*a= 2n pi
    make_kpt for uniq_kptji_ids [27 45]
kpt = [-0.26727642 -0.15431212  0.33382718]
adapted_ji_idx = [ 138  156  216  238  310  336  420  450  546  580  688  726  846  888
 1020 1066 1210 1260 1416 1470 1638 1696 1876 1938]
memory = 1843.613696
int3c2e [1/1], AO [0:60], ncol = 41616
kpt = [-0.26727642 -0.15431212 -0.33382718]
adapted_ji_idx = [ 171  191  257  281  359  387  477  509  611  647  761  801  927  971
 1109 1157 1307 1359 1521 1577 1751 1811 1997 2061]
memory = 1870.983168
int3c2e [1/1], AO [0:60], ncol = 41616
Symmetry pattern (k + [-0.26727642 -0.15431212  0.33382718])*a= 2n pi
    make_kpt for [125 143]
kpt = [-0.80182927 -0.46293635  0.33382718]
adapted_ji_idx = [1178 1228 1384 1438 1606 1664 1844 1906]
memory = 1871.110144
int3c2e [1/1], AO [0:60], ncol = 41616
kpt = [-0.80182927 -0.46293635 -0.33382718]
adapted_ji_idx = [1275 1327 1489 1545 1719 1779 1965 2029]
memory = 1871.458304
int3c2e [1/1], AO [0:60], ncol = 41616
Cholesky decomposition for j2c at kpt 28
DF metric linear dependency for kpt 28
cond = 1.084e+18, drop 48 bfns
Symmetry pattern (k - [-0.26727642 -0.15431212  0.50074077])*a= 2n pi
    make_kpt for uniq_kptji_ids [28 41]
kpt = [-0.26727642 -0.15431212  0.50074077]
adapted_ji_idx = [ 139  217  311  421  547  689  847 1021 1211 1417 1639 1877]
memory = 1884.393472
int3c2e [1/1], AO [0:60], ncol = 41616
kpt = [-0.26727642 -0.15431212 -0.16691359]
adapted_ji_idx = [ 153  172  192  235  258  282  333  360  388  447  478  510  577  612
  648  723  762  802  885  928  972 1063 1110 1158 1257 1308 1360 1467
 1522 1578 1693 1752 1812 1935 1998 2062]
memory = 1880.793088
int3c2e [1/1], AO [0:60], ncol = 41616
Symmetry pattern (k + [-0.26727642 -0.15431212  0.50074077])*a= 2n pi
    make_kpt for [124 147]
kpt = [-0.80182927 -0.46293635  0.16691359]
adapted_ji_idx = [1177 1227 1278 1383 1437 1492 1605 1663 1722 1843 1905 1968]
memory = 1818.914816
int3c2e [1/1], AO [0:60], ncol = 41616
kpt = [-0.80182927 -0.46293635 -0.50074077]
adapted_ji_idx = [1326 1544 1778 2028]
memory = 1840.451584
int3c2e [1/1], AO [0:60], ncol = 41616
Cholesky decomposition for j2c at kpt 29
Symmetry pattern (k - [-0.26727642  0.15431212  0.        ])*a= 2n pi
    make_kpt for uniq_kptji_ids [29 67]
kpt = [-0.26727642  0.15431212  0.        ]
adapted_ji_idx = [ 140  158  177  197  218  240  263  287  312  338  365  393  548  582
  617  653  690  728  767  807  848  890  933  977 1212 1262 1313 1365
 1418 1472 1527 1583 1640 1698 1757 1817]
memory = 1845.047296
int3c2e [1/1], AO [0:60], ncol = 41616
kpt = [-0.26727642 -1.08018481  0.        ]
adapted_ji_idx = [ 406  436  467  499 1006 1052 1099 1147 1862 1924 1987 2051]
memory = 1845.317632
int3c2e [1/1], AO [0:60], ncol = 41616
Symmetry pattern (k + [-0.26727642  0.15431212  0.        ])*a= 2n pi
    make_kpt for [135 151]
kpt = [-0.80182927  0.46293635  0.        ]
adapted_ji_idx = [1188 1238 1289 1341]
memory = 1867.948032
int3c2e [1/1], AO [0:60], ncol = 41616
kpt = [-0.80182927 -0.77156058  0.        ]
adapted_ji_idx = [1378 1432 1487 1543 1600 1658 1717 1777 1838 1900 1963 2027]
memory = 1867.943936
int3c2e [1/1], AO [0:60], ncol = 41616
Cholesky decomposition for j2c at kpt 30
Symmetry pattern (k - [-0.26727642  0.15431212  0.16691359])*a= 2n pi
    make_kpt for uniq_kptji_ids [30 50 68 73]
kpt = [-0.26727642  0.15431212  0.16691359]
adapted_ji_idx = [ 141  159  178  219  241  264  313  339  366  549  583  618  691  729
  768  849  891  934 1213 1263 1314 1419 1473 1528 1641 1699 1758]
memory = 1868.521472
int3c2e [1/1], AO [0:60], ncol = 41616
kpt = [-0.26727642  0.15431212 -0.50074077]
adapted_ji_idx = [ 194  284  390  650  804  974 1362 1580 1814]
memory = 1874.120704
int3c2e [1/1], AO [0:60], ncol = 41616
kpt = [-0.26727642 -1.08018481  0.16691359]
adapted_ji_idx = [ 407  437  468 1007 1053 1100 1863 1925 1988]
memory = 1870.864384
int3c2e [1/1], AO [0:60], ncol = 41616
kpt = [-0.26727642 -1.08018481 -0.50074077]
adapted_ji_idx = [ 496 1144 2048]
memory = 1873.174528
int3c2e [1/1], AO [0:60], ncol = 41616
Symmetry pattern (k + [-0.26727642  0.15431212  0.16691359])*a= 2n pi
    make_kpt for [138 142 154 155]
kpt = [-0.80182927  0.46293635  0.50074077]
adapted_ji_idx = [1191]
memory = 1873.399808
int3c2e [1/1], AO [0:60], ncol = 41616
kpt = [-0.80182927  0.46293635 -0.16691359]
adapted_ji_idx = [1237 1288 1340]
memory = 1872.994304
int3c2e [1/1], AO [0:60], ncol = 41616
kpt = [-0.80182927 -0.77156058  0.50074077]
adapted_ji_idx = [1381 1603 1841]
memory = 1873.477632
int3c2e [1/1], AO [0:60], ncol = 41616
kpt = [-0.80182927 -0.77156058 -0.16691359]
adapted_ji_idx = [1431 1486 1542 1657 1716 1776 1899 1962 2026]
memory = 1872.867328
int3c2e [1/1], AO [0:60], ncol = 41616
Cholesky decomposition for j2c at kpt 31
Symmetry pattern (k - [-0.26727642  0.15431212  0.33382718])*a= 2n pi
    make_kpt for uniq_kptji_ids [31 46 69 72]
kpt = [-0.26727642  0.15431212  0.33382718]
adapted_ji_idx = [ 142  160  220  242  314  340  550  584  692  730  850  892 1214 1264
 1420 1474 1642 1700]
memory = 1873.793024
int3c2e [1/1], AO [0:60], ncol = 41616
kpt = [-0.26727642  0.15431212 -0.33382718]
adapted_ji_idx = [ 175  195  261  285  363  391  615  651  765  805  931  975 1311 1363
 1525 1581 1755 1815]
memory = 1873.801216
int3c2e [1/1], AO [0:60], ncol = 41616
kpt = [-0.26727642 -1.08018481  0.33382718]
adapted_ji_idx = [ 408  438 1008 1054 1864 1926]
memory = 1874.04288
int3c2e [1/1], AO [0:60], ncol = 41616
kpt = [-0.26727642 -1.08018481 -0.33382718]
adapted_ji_idx = [ 465  497 1097 1145 1985 2049]
memory = 1873.24416
int3c2e [1/1], AO [0:60], ncol = 41616
Symmetry pattern (k + [-0.26727642  0.15431212  0.33382718])*a= 2n pi
    make_kpt for [137 146 153 156]
kpt = [-0.80182927  0.46293635  0.33382718]
adapted_ji_idx = [1190 1240]
memory = 1871.589376
int3c2e [1/1], AO [0:60], ncol = 41616
kpt = [-0.80182927  0.46293635 -0.33382718]
adapted_ji_idx = [1287 1339]
memory = 1873.38752
int3c2e [1/1], AO [0:60], ncol = 41616
kpt = [-0.80182927 -0.77156058  0.33382718]
adapted_ji_idx = [1380 1434 1602 1660 1840 1902]
memory = 1873.833984
int3c2e [1/1], AO [0:60], ncol = 41616
kpt = [-0.80182927 -0.77156058 -0.33382718]
adapted_ji_idx = [1485 1541 1715 1775 1961 2025]
memory = 1873.866752
int3c2e [1/1], AO [0:60], ncol = 41616
Cholesky decomposition for j2c at kpt 32
Symmetry pattern (k - [-0.26727642  0.15431212  0.50074077])*a= 2n pi
    make_kpt for uniq_kptji_ids [32 42 70 71]
kpt = [-0.26727642  0.15431212  0.50074077]
adapted_ji_idx = [ 143  221  315  551  693  851 1215 1421 1643]
memory = 1873.948672
int3c2e [1/1], AO [0:60], ncol = 41616
kpt = [-0.26727642  0.15431212 -0.16691359]
adapted_ji_idx = [ 157  176  196  239  262  286  337  364  392  581  616  652  727  766
  806  889  932  976 1261 1312 1364 1471 1526 1582 1697 1756 1816]
memory = 1874.255872
int3c2e [1/1], AO [0:60], ncol = 41616
kpt = [-0.26727642 -1.08018481  0.50074077]
adapted_ji_idx = [ 409 1009 1865]
memory = 1873.719296
int3c2e [1/1], AO [0:60], ncol = 41616
kpt = [-0.26727642 -1.08018481 -0.16691359]
adapted_ji_idx = [ 435  466  498 1051 1098 1146 1923 1986 2050]
memory = 1873.911808
int3c2e [1/1], AO [0:60], ncol = 41616
Symmetry pattern (k + [-0.26727642  0.15431212  0.50074077])*a= 2n pi
    make_kpt for [136 150 152 157]
kpt = [-0.80182927  0.46293635  0.16691359]
adapted_ji_idx = [1189 1239 1290]
memory = 1873.98144
int3c2e [1/1], AO [0:60], ncol = 41616
kpt = [-0.80182927  0.46293635 -0.50074077]
adapted_ji_idx = [1338]
memory = 1873.887232
int3c2e [1/1], AO [0:60], ncol = 41616
kpt = [-0.80182927 -0.77156058  0.16691359]
adapted_ji_idx = [1379 1433 1488 1601 1659 1718 1839 1901 1964]
memory = 1872.65024
int3c2e [1/1], AO [0:60], ncol = 41616
kpt = [-0.80182927 -0.77156058 -0.50074077]
adapted_ji_idx = [1540 1774 2024]
memory = 1874.04288
int3c2e [1/1], AO [0:60], ncol = 41616
Cholesky decomposition for j2c at kpt 33
Symmetry pattern (k - [-0.26727642  0.46293635  0.        ])*a= 2n pi
    make_kpt for uniq_kptji_ids [33 60]
kpt = [-0.26727642  0.46293635  0.        ]
adapted_ji_idx = [ 144  162  181  201  222  244  267  291  552  586  621  657  694  732
  771  811 1216 1266 1317 1369 1422 1476 1531 1587]
memory = 1874.141184
int3c2e [1/1], AO [0:60], ncol = 41616
kpt = [-0.26727642 -0.77156058  0.        ]
adapted_ji_idx = [ 300  326  353  381  410  440  471  503  836  878  921  965 1010 1056
 1103 1151 1628 1686 1745 1805 1866 1928 1991 2055]
memory = 1873.911808
int3c2e [1/1], AO [0:60], ncol = 41616
Symmetry pattern (k + [-0.26727642  0.46293635  0.        ])*a= 2n pi
    make_kpt for [131 158]
kpt = [-0.80182927  0.15431212  0.        ]
adapted_ji_idx = [1184 1234 1285 1337 1390 1444 1499 1555]
memory = 1875.72224
int3c2e [1/1], AO [0:60], ncol = 41616
kpt = [-0.80182927 -1.08018481  0.        ]
adapted_ji_idx = [1596 1654 1713 1773 1834 1896 1959 2023]
memory = 1875.80416
int3c2e [1/1], AO [0:60], ncol = 41616
Cholesky decomposition for j2c at kpt 34
Symmetry pattern (k - [-0.26727642  0.46293635  0.16691359])*a= 2n pi
    make_kpt for uniq_kptji_ids [34 51 61 66]
kpt = [-0.26727642  0.46293635  0.16691359]
adapted_ji_idx = [ 145  163  182  223  245  268  553  587  622  695  733  772 1217 1267
 1318 1423 1477 1532]
memory = 1876.76672
int3c2e [1/1], AO [0:60], ncol = 41616
kpt = [-0.26727642  0.46293635 -0.50074077]
adapted_ji_idx = [ 198  288  654  808 1366 1584]
memory = 1877.475328
int3c2e [1/1], AO [0:60], ncol = 41616
kpt = [-0.26727642 -0.77156058  0.16691359]
adapted_ji_idx = [ 301  327  354  411  441  472  837  879  922 1011 1057 1104 1629 1687
 1746 1867 1929 1992]
memory = 1877.491712
int3c2e [1/1], AO [0:60], ncol = 41616
kpt = [-0.26727642 -0.77156058 -0.50074077]
adapted_ji_idx = [ 378  500  962 1148 1802 2052]
memory = 1883.40224
int3c2e [1/1], AO [0:60], ncol = 41616
Symmetry pattern (k + [-0.26727642  0.46293635  0.16691359])*a= 2n pi
    make_kpt for [134 141 161 162]
kpt = [-0.80182927  0.15431212  0.50074077]
adapted_ji_idx = [1187 1393]
memory = 1885.556736
int3c2e [1/1], AO [0:60], ncol = 41616
kpt = [-0.80182927  0.15431212 -0.16691359]
adapted_ji_idx = [1233 1284 1336 1443 1498 1554]
memory = 1885.106176
int3c2e [1/1], AO [0:60], ncol = 41616
kpt = [-0.80182927 -1.08018481  0.50074077]
adapted_ji_idx = [1599 1837]
memory = 1885.188096
int3c2e [1/1], AO [0:60], ncol = 41616
kpt = [-0.80182927 -1.08018481 -0.16691359]
adapted_ji_idx = [1653 1712 1772 1895 1958 2022]
memory = 1884.643328
int3c2e [1/1], AO [0:60], ncol = 41616
Cholesky decomposition for j2c at kpt 35
Symmetry pattern (k - [-0.26727642  0.46293635  0.33382718])*a= 2n pi
    make_kpt for uniq_kptji_ids [35 47 62 65]
kpt = [-0.26727642  0.46293635  0.33382718]
adapted_ji_idx = [ 146  164  224  246  554  588  696  734 1218 1268 1424 1478]
memory = 1889.23904
int3c2e [1/1], AO [0:60], ncol = 41616
kpt = [-0.26727642  0.46293635 -0.33382718]
adapted_ji_idx = [ 179  199  265  289  619  655  769  809 1315 1367 1529 1585]
memory = 1891.201024
int3c2e [1/1], AO [0:60], ncol = 41616
kpt = [-0.26727642 -0.77156058  0.33382718]
adapted_ji_idx = [ 302  328  412  442  838  880 1012 1058 1630 1688 1868 1930]
memory = 1893.904384
int3c2e [1/1], AO [0:60], ncol = 41616
kpt = [-0.26727642 -0.77156058 -0.33382718]
adapted_ji_idx = [ 351  379  469  501  919  963 1101 1149 1743 1803 1989 2053]
memory = 1895.919616
int3c2e [1/1], AO [0:60], ncol = 41616
Symmetry pattern (k + [-0.26727642  0.46293635  0.33382718])*a= 2n pi
    make_kpt for [133 145 160 163]
kpt = [-0.80182927  0.15431212  0.33382718]
adapted_ji_idx = [1186 1236 1392 1446]
memory = 1896.914944
int3c2e [1/1], AO [0:60], ncol = 41616
kpt = [-0.80182927  0.15431212 -0.33382718]
adapted_ji_idx = [1283 1335 1497 1553]
memory = 1897.496576
int3c2e [1/1], AO [0:60], ncol = 41616
kpt = [-0.80182927 -1.08018481  0.33382718]
adapted_ji_idx = [1598 1656 1836 1898]
memory = 1897.705472
int3c2e [1/1], AO [0:60], ncol = 41616
kpt = [-0.80182927 -1.08018481 -0.33382718]
adapted_ji_idx = [1711 1771 1957 2021]
memory = 1898.14784
int3c2e [1/1], AO [0:60], ncol = 41616
Cholesky decomposition for j2c at kpt 36
Symmetry pattern (k - [-0.26727642  0.46293635  0.50074077])*a= 2n pi
    make_kpt for uniq_kptji_ids [36 43 63 64]
kpt = [-0.26727642  0.46293635  0.50074077]
adapted_ji_idx = [ 147  225  555  697 1219 1425]
memory = 1898.299392
int3c2e [1/1], AO [0:60], ncol = 41616
kpt = [-0.26727642  0.46293635 -0.16691359]
adapted_ji_idx = [ 161  180  200  243  266  290  585  620  656  731  770  810 1265 1316
 1368 1475 1530 1586]
memory = 1898.397696
int3c2e [1/1], AO [0:60], ncol = 41616
kpt = [-0.26727642 -0.77156058  0.50074077]
adapted_ji_idx = [ 303  413  839 1013 1631 1869]
memory = 1898.409984
int3c2e [1/1], AO [0:60], ncol = 41616
kpt = [-0.26727642 -0.77156058 -0.16691359]
adapted_ji_idx = [ 325  352  380  439  470  502  877  920  964 1055 1102 1150 1685 1744
 1804 1927 1990 2054]
memory = 1898.397696
int3c2e [1/1], AO [0:60], ncol = 41616
Symmetry pattern (k + [-0.26727642  0.46293635  0.50074077])*a= 2n pi
    make_kpt for [132 149 159 164]
kpt = [-0.80182927  0.15431212  0.16691359]
adapted_ji_idx = [1185 1235 1286 1391 1445 1500]
memory = 1898.233856
int3c2e [1/1], AO [0:60], ncol = 41616
kpt = [-0.80182927  0.15431212 -0.50074077]
adapted_ji_idx = [1334 1552]
memory = 1898.00448
int3c2e [1/1], AO [0:60], ncol = 41616
kpt = [-0.80182927 -1.08018481  0.16691359]
adapted_ji_idx = [1597 1655 1714 1835 1897 1960]
memory = 1898.262528
int3c2e [1/1], AO [0:60], ncol = 41616
kpt = [-0.80182927 -1.08018481 -0.50074077]
adapted_ji_idx = [1770 2020]
memory = 1898.471424
int3c2e [1/1], AO [0:60], ncol = 41616
Cholesky decomposition for j2c at kpt 37
DF metric linear dependency for kpt 37
cond = 1.038e+18, drop 49 bfns
Symmetry pattern (k - [-0.26727642  0.77156058  0.        ])*a= 2n pi
    make_kpt for uniq_kptji_ids [37 53]
kpt = [-0.26727642  0.77156058  0.        ]
adapted_ji_idx = [ 148  166  185  205  556  590  625  661 1220 1270 1321 1373]
memory = 1910.833152
int3c2e [1/1], AO [0:60], ncol = 41616
kpt = [-0.26727642 -0.46293635  0.        ]
adapted_ji_idx = [ 210  232  255  279  304  330  357  385  414  444  475  507  682  720
  759  799  840  882  925  969 1014 1060 1107 1155 1410 1464 1519 1575
 1632 1690 1749 1809 1870 1932 1995 2059]
memory = 1908.051968
int3c2e [1/1], AO [0:60], ncol = 41616
Symmetry pattern (k + [-0.26727642  0.77156058  0.        ])*a= 2n pi
    make_kpt for [127 165]
kpt = [-0.80182927 -0.15431212  0.        ]
adapted_ji_idx = [1180 1230 1281 1333 1386 1440 1495 1551 1608 1666 1725 1785]
memory = 1844.854784
int3c2e [1/1], AO [0:60], ncol = 41616
kpt = [-0.80182927 -1.38880904  0.        ]
adapted_ji_idx = [1830 1892 1955 2019]
memory = 1866.186752
int3c2e [1/1], AO [0:60], ncol = 41616
Cholesky decomposition for j2c at kpt 38
DF metric linear dependency for kpt 38
cond = 8.681e+17, drop 49 bfns
Symmetry pattern (k - [-0.26727642  0.77156058  0.16691359])*a= 2n pi
    make_kpt for uniq_kptji_ids [38 52 54 59]
kpt = [-0.26727642  0.77156058  0.16691359]
adapted_ji_idx = [ 149  167  186  557  591  626 1221 1271 1322]
memory = 1910.165504
int3c2e [1/1], AO [0:60], ncol = 41616
kpt = [-0.26727642  0.77156058 -0.50074077]
adapted_ji_idx = [ 202  658 1370]
memory = 1909.100544
int3c2e [1/1], AO [0:60], ncol = 41616
kpt = [-0.26727642 -0.46293635  0.16691359]
adapted_ji_idx = [ 211  233  256  305  331  358  415  445  476  683  721  760  841  883
  926 1015 1061 1108 1411 1465 1520 1633 1691 1750 1871 1933 1996]
memory = 1909.952512
int3c2e [1/1], AO [0:60], ncol = 41616
kpt = [-0.26727642 -0.46293635 -0.50074077]
adapted_ji_idx = [ 276  382  504  796  966 1152 1572 1806 2056]
memory = 1909.059584
int3c2e [1/1], AO [0:60], ncol = 41616
Symmetry pattern (k + [-0.26727642  0.77156058  0.16691359])*a= 2n pi
    make_kpt for [130 140 168 169]
kpt = [-0.80182927 -0.15431212  0.50074077]
adapted_ji_idx = [1183 1389 1611]
memory = 1908.637696
int3c2e [1/1], AO [0:60], ncol = 41616
kpt = [-0.80182927 -0.15431212 -0.16691359]
adapted_ji_idx = [1229 1280 1332 1439 1494 1550 1665 1724 1784]
memory = 1909.506048
int3c2e [1/1], AO [0:60], ncol = 41616
kpt = [-0.80182927 -1.38880904  0.50074077]
adapted_ji_idx = [1833]
memory = 1908.5312
int3c2e [1/1], AO [0:60], ncol = 41616
kpt = [-0.80182927 -1.38880904 -0.16691359]
adapted_ji_idx = [1891 1954 2018]
memory = 1908.215808
int3c2e [1/1], AO [0:60], ncol = 41616
Cholesky decomposition for j2c at kpt 39
Symmetry pattern (k - [-0.26727642  0.77156058  0.33382718])*a= 2n pi
    make_kpt for uniq_kptji_ids [39 48 55 58]
kpt = [-0.26727642  0.77156058  0.33382718]
adapted_ji_idx = [ 150  168  558  592 1222 1272]
memory = 1909.989376
int3c2e [1/1], AO [0:60], ncol = 41616
kpt = [-0.26727642  0.77156058 -0.33382718]
adapted_ji_idx = [ 183  203  623  659 1319 1371]
memory = 1909.886976
int3c2e [1/1], AO [0:60], ncol = 41616
kpt = [-0.26727642 -0.46293635  0.33382718]
adapted_ji_idx = [ 212  234  306  332  416  446  684  722  842  884 1016 1062 1412 1466
 1634 1692 1872 1934]
memory = 1909.895168
int3c2e [1/1], AO [0:60], ncol = 41616
kpt = [-0.26727642 -0.46293635 -0.33382718]
adapted_ji_idx = [ 253  277  355  383  473  505  757  797  923  967 1105 1153 1517 1573
 1747 1807 1993 2057]
memory = 1910.054912
int3c2e [1/1], AO [0:60], ncol = 41616
Symmetry pattern (k + [-0.26727642  0.77156058  0.33382718])*a= 2n pi
    make_kpt for [129 144 167 170]
kpt = [-0.80182927 -0.15431212  0.33382718]
adapted_ji_idx = [1182 1232 1388 1442 1610 1668]
memory = 1909.6576
int3c2e [1/1], AO [0:60], ncol = 41616
kpt = [-0.80182927 -0.15431212 -0.33382718]
adapted_ji_idx = [1279 1331 1493 1549 1723 1783]
memory = 1909.80096
int3c2e [1/1], AO [0:60], ncol = 41616
kpt = [-0.80182927 -1.38880904  0.33382718]
adapted_ji_idx = [1832 1894]
memory = 1909.850112
int3c2e [1/1], AO [0:60], ncol = 41616
kpt = [-0.80182927 -1.38880904 -0.33382718]
adapted_ji_idx = [1953 2017]
memory = 1908.445184
int3c2e [1/1], AO [0:60], ncol = 41616
Cholesky decomposition for j2c at kpt 40
DF metric linear dependency for kpt 40
cond = 1.975e+18, drop 49 bfns
Symmetry pattern (k - [-0.26727642  0.77156058  0.50074077])*a= 2n pi
    make_kpt for uniq_kptji_ids [40 44 56 57]
kpt = [-0.26727642  0.77156058  0.50074077]
adapted_ji_idx = [ 151  559 1223]
memory = 1909.972992
int3c2e [1/1], AO [0:60], ncol = 41616
kpt = [-0.26727642  0.77156058 -0.16691359]
adapted_ji_idx = [ 165  184  204  589  624  660 1269 1320 1372]
memory = 1909.78048
int3c2e [1/1], AO [0:60], ncol = 41616
kpt = [-0.26727642 -0.46293635  0.50074077]
adapted_ji_idx = [ 213  307  417  685  843 1017 1413 1635 1873]
memory = 1908.912128
int3c2e [1/1], AO [0:60], ncol = 41616
kpt = [-0.26727642 -0.46293635 -0.16691359]
adapted_ji_idx = [ 231  254  278  329  356  384  443  474  506  719  758  798  881  924
  968 1059 1106 1154 1463 1518 1574 1689 1748 1808 1931 1994 2058]
memory = 1908.834304
int3c2e [1/1], AO [0:60], ncol = 41616
Symmetry pattern (k + [-0.26727642  0.77156058  0.50074077])*a= 2n pi
    make_kpt for [128 148 166 171]
kpt = [-0.80182927 -0.15431212  0.16691359]
adapted_ji_idx = [1181 1231 1282 1387 1441 1496 1609 1667 1726]
memory = 1909.415936
int3c2e [1/1], AO [0:60], ncol = 41616
kpt = [-0.80182927 -0.15431212 -0.50074077]
adapted_ji_idx = [1330 1548 1782]
memory = 1908.097024
int3c2e [1/1], AO [0:60], ncol = 41616
kpt = [-0.80182927 -1.38880904  0.16691359]
adapted_ji_idx = [1831 1893 1956]
memory = 1909.383168
int3c2e [1/1], AO [0:60], ncol = 41616
kpt = [-0.80182927 -1.38880904 -0.50074077]
adapted_ji_idx = [2016]
memory = 1909.641216
int3c2e [1/1], AO [0:60], ncol = 41616
Cholesky decomposition for j2c at kpt 74
DF metric linear dependency for kpt 74
cond = 8.621e+17, drop 48 bfns
Symmetry pattern (k - [-0.53455285 -0.30862423  0.        ])*a= 2n pi
    make_kpt for uniq_kptji_ids [74]
kpt = [-0.53455285 -0.30862423  0.        ]
adapted_ji_idx = [ 528  562  597  633  670  708  747  787  828  870  913  957 1002 1048
 1095 1143 1192 1242 1293 1345 1398 1452 1507 1563 1620 1678 1737 1797
 1858 1920 1983 2047]
memory = 1909.4528
int3c2e [1/1], AO [0:60], ncol = 41616
Symmetry pattern (k + [-0.53455285 -0.30862423  0.        ])*a= 2n pi
    make_kpt for [74]
Cholesky decomposition for j2c at kpt 75
DF metric linear dependency for kpt 75
cond = 1.179e+18, drop 48 bfns
Symmetry pattern (k - [-0.53455285 -0.30862423  0.16691359])*a= 2n pi
    make_kpt for uniq_kptji_ids [75 98]
kpt = [-0.53455285 -0.30862423  0.16691359]
adapted_ji_idx = [ 529  563  598  671  709  748  829  871  914 1003 1049 1096 1193 1243
 1294 1399 1453 1508 1621 1679 1738 1859 1921 1984]
memory = 1909.444608
int3c2e [1/1], AO [0:60], ncol = 41616
kpt = [-0.53455285 -0.30862423 -0.50074077]
adapted_ji_idx = [ 630  784  954 1140 1342 1560 1794 2044]
memory = 1910.398976
int3c2e [1/1], AO [0:60], ncol = 41616
Symmetry pattern (k + [-0.53455285 -0.30862423  0.16691359])*a= 2n pi
    make_kpt for [77 90]
kpt = [-0.53455285 -0.30862423  0.50074077]
adapted_ji_idx = [ 531  673  831 1005 1195 1401 1623 1861]
memory = 1909.403648
int3c2e [1/1], AO [0:60], ncol = 41616
kpt = [-0.53455285 -0.30862423 -0.16691359]
adapted_ji_idx = [ 561  596  632  707  746  786  869  912  956 1047 1094 1142 1241 1292
 1344 1451 1506 1562 1677 1736 1796 1919 1982 2046]
memory = 1909.039104
int3c2e [1/1], AO [0:60], ncol = 41616
Cholesky decomposition for j2c at kpt 76
Symmetry pattern (k - [-0.53455285 -0.30862423  0.33382718])*a= 2n pi
    make_kpt for uniq_kptji_ids [76 94]
kpt = [-0.53455285 -0.30862423  0.33382718]
adapted_ji_idx = [ 530  564  672  710  830  872 1004 1050 1194 1244 1400 1454 1622 1680
 1860 1922]
memory = 1910.04672
int3c2e [1/1], AO [0:60], ncol = 41616
kpt = [-0.53455285 -0.30862423 -0.33382718]
adapted_ji_idx = [ 595  631  745  785  911  955 1093 1141 1291 1343 1505 1561 1735 1795
 1981 2045]
memory = 1909.9648
int3c2e [1/1], AO [0:60], ncol = 41616
Symmetry pattern (k + [-0.53455285 -0.30862423  0.33382718])*a= 2n pi
    make_kpt for [76 94]
Cholesky decomposition for j2c at kpt 78
Symmetry pattern (k - [-0.53455285  0.          0.        ])*a= 2n pi
    make_kpt for uniq_kptji_ids [ 78 116]
kpt = [-0.53455285  0.          0.        ]
adapted_ji_idx = [ 532  566  601  637  674  712  751  791  832  874  917  961 1196 1246
 1297 1349 1402 1456 1511 1567 1624 1682 1741 1801]
memory = 1910.304768
int3c2e [1/1], AO [0:60], ncol = 41616
kpt = [-0.53455285 -1.23449692  0.        ]
adapted_ji_idx = [ 990 1036 1083 1131 1846 1908 1971 2035]
memory = 1909.633024
int3c2e [1/1], AO [0:60], ncol = 41616
Symmetry pattern (k + [-0.53455285  0.          0.        ])*a= 2n pi
    make_kpt for [ 86 102]
kpt = [-0.53455285  0.61724846  0.        ]
adapted_ji_idx = [ 540  574  609  645 1204 1254 1305 1357]
memory = 1910.063104
int3c2e [1/1], AO [0:60], ncol = 41616
kpt = [-0.53455285 -0.61724846  0.        ]
adapted_ji_idx = [ 666  704  743  783  824  866  909  953  998 1044 1091 1139 1394 1448
 1503 1559 1616 1674 1733 1793 1854 1916 1979 2043]
memory = 1910.116352
int3c2e [1/1], AO [0:60], ncol = 41616
Cholesky decomposition for j2c at kpt 79
DF metric linear dependency for kpt 79
cond = 2.124e+18, drop 49 bfns
Symmetry pattern (k - [-0.53455285  0.          0.16691359])*a= 2n pi
    make_kpt for uniq_kptji_ids [ 79  99 117 122]
kpt = [-0.53455285  0.          0.16691359]
adapted_ji_idx = [ 533  567  602  675  713  752  833  875  918 1197 1247 1298 1403 1457
 1512 1625 1683 1742]
memory = 1911.177216
int3c2e [1/1], AO [0:60], ncol = 41616
kpt = [-0.53455285  0.         -0.50074077]
adapted_ji_idx = [ 634  788  958 1346 1564 1798]
memory = 1908.707328
int3c2e [1/1], AO [0:60], ncol = 41616
kpt = [-0.53455285 -1.23449692  0.16691359]
adapted_ji_idx = [ 991 1037 1084 1847 1909 1972]
memory = 1908.936704
int3c2e [1/1], AO [0:60], ncol = 41616
kpt = [-0.53455285 -1.23449692 -0.50074077]
adapted_ji_idx = [1128 2032]
memory = 1908.789248
int3c2e [1/1], AO [0:60], ncol = 41616
Symmetry pattern (k + [-0.53455285  0.          0.16691359])*a= 2n pi
    make_kpt for [ 89  93 105 106]
kpt = [-0.53455285  0.61724846  0.50074077]
adapted_ji_idx = [ 543 1207]
memory = 1909.653504
int3c2e [1/1], AO [0:60], ncol = 41616
kpt = [-0.53455285  0.61724846 -0.16691359]
adapted_ji_idx = [ 573  608  644 1253 1304 1356]
memory = 1909.682176
int3c2e [1/1], AO [0:60], ncol = 41616
kpt = [-0.53455285 -0.61724846  0.50074077]
adapted_ji_idx = [ 669  827 1001 1397 1619 1857]
memory = 1909.141504
int3c2e [1/1], AO [0:60], ncol = 41616
kpt = [-0.53455285 -0.61724846 -0.16691359]
adapted_ji_idx = [ 703  742  782  865  908  952 1043 1090 1138 1447 1502 1558 1673 1732
 1792 1915 1978 2042]
memory = 1909.239808
int3c2e [1/1], AO [0:60], ncol = 41616
Cholesky decomposition for j2c at kpt 80
Symmetry pattern (k - [-0.53455285  0.          0.33382718])*a= 2n pi
    make_kpt for uniq_kptji_ids [ 80  95 118 121]
kpt = [-0.53455285  0.          0.33382718]
adapted_ji_idx = [ 534  568  676  714  834  876 1198 1248 1404 1458 1626 1684]
memory = 1909.157888
int3c2e [1/1], AO [0:60], ncol = 41616
kpt = [-0.53455285  0.         -0.33382718]
adapted_ji_idx = [ 599  635  749  789  915  959 1295 1347 1509 1565 1739 1799]
memory = 1908.191232
int3c2e [1/1], AO [0:60], ncol = 41616
kpt = [-0.53455285 -1.23449692  0.33382718]
adapted_ji_idx = [ 992 1038 1848 1910]
memory = 1909.809152
int3c2e [1/1], AO [0:60], ncol = 41616
kpt = [-0.53455285 -1.23449692 -0.33382718]
adapted_ji_idx = [1081 1129 1969 2033]
memory = 1909.825536
int3c2e [1/1], AO [0:60], ncol = 41616
Symmetry pattern (k + [-0.53455285  0.          0.33382718])*a= 2n pi
    make_kpt for [ 88  97 104 107]
kpt = [-0.53455285  0.61724846  0.33382718]
adapted_ji_idx = [ 542  576 1206 1256]
memory = 1908.9408
int3c2e [1/1], AO [0:60], ncol = 41616
kpt = [-0.53455285  0.61724846 -0.33382718]
adapted_ji_idx = [ 607  643 1303 1355]
memory = 1908.568064
int3c2e [1/1], AO [0:60], ncol = 41616
kpt = [-0.53455285 -0.61724846  0.33382718]
adapted_ji_idx = [ 668  706  826  868 1000 1046 1396 1450 1618 1676 1856 1918]
memory = 1909.714944
int3c2e [1/1], AO [0:60], ncol = 41616
kpt = [-0.53455285 -0.61724846 -0.33382718]
adapted_ji_idx = [ 741  781  907  951 1089 1137 1501 1557 1731 1791 1977 2041]
memory = 1910.10816
int3c2e [1/1], AO [0:60], ncol = 41616
Cholesky decomposition for j2c at kpt 81
DF metric linear dependency for kpt 81
cond = 2.088e+18, drop 49 bfns
Symmetry pattern (k - [-0.53455285  0.          0.50074077])*a= 2n pi
    make_kpt for uniq_kptji_ids [ 81  91 119 120]
kpt = [-0.53455285  0.          0.50074077]
adapted_ji_idx = [ 535  677  835 1199 1405 1627]
memory = 1911.17312
int3c2e [1/1], AO [0:60], ncol = 41616
kpt = [-0.53455285  0.         -0.16691359]
adapted_ji_idx = [ 565  600  636  711  750  790  873  916  960 1245 1296 1348 1455 1510
 1566 1681 1740 1800]
memory = 1908.891648
int3c2e [1/1], AO [0:60], ncol = 41616
kpt = [-0.53455285 -1.23449692  0.50074077]
adapted_ji_idx = [ 993 1849]
memory = 1908.6336
int3c2e [1/1], AO [0:60], ncol = 41616
kpt = [-0.53455285 -1.23449692 -0.16691359]
adapted_ji_idx = [1035 1082 1130 1907 1970 2034]
memory = 1909.563392
int3c2e [1/1], AO [0:60], ncol = 41616
Symmetry pattern (k + [-0.53455285  0.          0.50074077])*a= 2n pi
    make_kpt for [ 87 101 103 108]
kpt = [-0.53455285  0.61724846  0.16691359]
adapted_ji_idx = [ 541  575  610 1205 1255 1306]
memory = 1908.883456
int3c2e [1/1], AO [0:60], ncol = 41616
kpt = [-0.53455285  0.61724846 -0.50074077]
adapted_ji_idx = [ 642 1354]
memory = 1909.096448
int3c2e [1/1], AO [0:60], ncol = 41616
kpt = [-0.53455285 -0.61724846  0.16691359]
adapted_ji_idx = [ 667  705  744  825  867  910  999 1045 1092 1395 1449 1504 1617 1675
 1734 1855 1917 1980]
memory = 1909.47328
int3c2e [1/1], AO [0:60], ncol = 41616
kpt = [-0.53455285 -0.61724846 -0.50074077]
adapted_ji_idx = [ 780  950 1136 1556 1790 2040]
memory = 1908.150272
int3c2e [1/1], AO [0:60], ncol = 41616
Cholesky decomposition for j2c at kpt 82
Symmetry pattern (k - [-0.53455285  0.30862423  0.        ])*a= 2n pi
    make_kpt for uniq_kptji_ids [ 82 109]
kpt = [-0.53455285  0.30862423  0.        ]
adapted_ji_idx = [ 536  570  605  641  678  716  755  795 1200 1250 1301 1353 1406 1460
 1515 1571]
memory = 1909.194752
int3c2e [1/1], AO [0:60], ncol = 41616
kpt = [-0.53455285 -0.92587269  0.        ]
adapted_ji_idx = [ 820  862  905  949  994 1040 1087 1135 1612 1670 1729 1789 1850 1912
 1975 2039]
memory = 1909.837824
int3c2e [1/1], AO [0:60], ncol = 41616
Symmetry pattern (k + [-0.53455285  0.30862423  0.        ])*a= 2n pi
    make_kpt for [ 82 109]
Cholesky decomposition for j2c at kpt 83
Symmetry pattern (k - [-0.53455285  0.30862423  0.16691359])*a= 2n pi
    make_kpt for uniq_kptji_ids [ 83 100 110 115]
kpt = [-0.53455285  0.30862423  0.16691359]
adapted_ji_idx = [ 537  571  606  679  717  756 1201 1251 1302 1407 1461 1516]
memory = 1910.427648
int3c2e [1/1], AO [0:60], ncol = 41616
kpt = [-0.53455285  0.30862423 -0.50074077]
adapted_ji_idx = [ 638  792 1350 1568]
memory = 1910.341632
int3c2e [1/1], AO [0:60], ncol = 41616
kpt = [-0.53455285 -0.92587269  0.16691359]
adapted_ji_idx = [ 821  863  906  995 1041 1088 1613 1671 1730 1851 1913 1976]
memory = 1908.875264
int3c2e [1/1], AO [0:60], ncol = 41616
kpt = [-0.53455285 -0.92587269 -0.50074077]
adapted_ji_idx = [ 946 1132 1786 2036]
memory = 1909.809152
int3c2e [1/1], AO [0:60], ncol = 41616
Symmetry pattern (k + [-0.53455285  0.30862423  0.16691359])*a= 2n pi
    make_kpt for [ 85  92 112 113]
kpt = [-0.53455285  0.30862423  0.50074077]
adapted_ji_idx = [ 539  681 1203 1409]
memory = 1909.80096
int3c2e [1/1], AO [0:60], ncol = 41616
kpt = [-0.53455285  0.30862423 -0.16691359]
adapted_ji_idx = [ 569  604  640  715  754  794 1249 1300 1352 1459 1514 1570]
memory = 1909.305344
int3c2e [1/1], AO [0:60], ncol = 41616
kpt = [-0.53455285 -0.92587269  0.50074077]
adapted_ji_idx = [ 823  997 1615 1853]
memory = 1909.997568
int3c2e [1/1], AO [0:60], ncol = 41616
kpt = [-0.53455285 -0.92587269 -0.16691359]
adapted_ji_idx = [ 861  904  948 1039 1086 1134 1669 1728 1788 1911 1974 2038]
memory = 1910.018048
int3c2e [1/1], AO [0:60], ncol = 41616
Cholesky decomposition for j2c at kpt 84
Symmetry pattern (k - [-0.53455285  0.30862423  0.33382718])*a= 2n pi
    make_kpt for uniq_kptji_ids [ 84  96 111 114]
kpt = [-0.53455285  0.30862423  0.33382718]
adapted_ji_idx = [ 538  572  680  718 1202 1252 1408 1462]
memory = 1910.075392
int3c2e [1/1], AO [0:60], ncol = 41616
kpt = [-0.53455285  0.30862423 -0.33382718]
adapted_ji_idx = [ 603  639  753  793 1299 1351 1513 1569]
memory = 1909.886976
int3c2e [1/1], AO [0:60], ncol = 41616
kpt = [-0.53455285 -0.92587269  0.33382718]
adapted_ji_idx = [ 822  864  996 1042 1614 1672 1852 1914]
memory = 1909.846016
int3c2e [1/1], AO [0:60], ncol = 41616
kpt = [-0.53455285 -0.92587269 -0.33382718]
adapted_ji_idx = [ 903  947 1085 1133 1727 1787 1973 2037]
memory = 1909.813248
int3c2e [1/1], AO [0:60], ncol = 41616
Symmetry pattern (k + [-0.53455285  0.30862423  0.33382718])*a= 2n pi
    make_kpt for [ 84  96 111 114]
    CPU time for j3c 510122.81 sec, wall time  23202.20 sec
    CPU time for Init get_k_kpts 510123.64 sec, wall time  23202.23 sec
    CPU time for get_k_kpts: make_kpt ki>=kj (0,*)     23.15 sec, wall time      0.93 sec
    CPU time for get_k_kpts: make_kpt ki>=kj (1,*)     72.82 sec, wall time      2.54 sec
    CPU time for get_k_kpts: make_kpt ki>=kj (2,*)    116.26 sec, wall time      4.12 sec
    CPU time for get_k_kpts: make_kpt ki>=kj (3,*)    156.19 sec, wall time      5.62 sec
    CPU time for get_k_kpts: make_kpt ki>=kj (4,*)    193.46 sec, wall time      7.72 sec
    CPU time for get_k_kpts: make_kpt ki>=kj (5,*)    234.88 sec, wall time      8.22 sec
    CPU time for get_k_kpts: make_kpt ki>=kj (6,*)    259.21 sec, wall time      9.05 sec
    CPU time for get_k_kpts: make_kpt ki>=kj (7,*)    290.80 sec, wall time     10.22 sec
    CPU time for get_k_kpts: make_kpt ki>=kj (8,*)    336.75 sec, wall time     12.21 sec
    CPU time for get_k_kpts: make_kpt ki>=kj (9,*)    384.75 sec, wall time     13.45 sec
    CPU time for get_k_kpts: make_kpt ki>=kj (10,*)    403.28 sec, wall time     14.14 sec
    CPU time for get_k_kpts: make_kpt ki>=kj (11,*)    460.36 sec, wall time     15.67 sec
    CPU time for get_k_kpts: make_kpt ki>=kj (12,*)    472.33 sec, wall time     16.73 sec
    CPU time for get_k_kpts: make_kpt ki>=kj (13,*)    503.76 sec, wall time     17.66 sec
    CPU time for get_k_kpts: make_kpt ki>=kj (14,*)    565.45 sec, wall time     20.08 sec
    CPU time for get_k_kpts: make_kpt ki>=kj (15,*)    598.41 sec, wall time     21.48 sec
    CPU time for get_k_kpts: make_kpt ki>=kj (16,*)    647.18 sec, wall time     23.29 sec
    CPU time for get_k_kpts: make_kpt ki>=kj (17,*)    677.45 sec, wall time     23.54 sec
    CPU time for get_k_kpts: make_kpt ki>=kj (18,*)    693.27 sec, wall time     24.38 sec
    CPU time for get_k_kpts: make_kpt ki>=kj (19,*)    749.38 sec, wall time     27.00 sec
    CPU time for get_k_kpts: make_kpt ki>=kj (20,*)    781.69 sec, wall time     27.48 sec
    CPU time for get_k_kpts: make_kpt ki>=kj (21,*)    822.91 sec, wall time     28.65 sec
    CPU time for get_k_kpts: make_kpt ki>=kj (22,*)    859.36 sec, wall time     30.02 sec
    CPU time for get_k_kpts: make_kpt ki>=kj (23,*)    901.12 sec, wall time     32.23 sec
    CPU time for get_k_kpts: make_kpt ki>=kj (24,*)    937.74 sec, wall time     32.61 sec
    CPU time for get_k_kpts: make_kpt ki>=kj (25,*)    946.61 sec, wall time     33.36 sec
    CPU time for get_k_kpts: make_kpt ki>=kj (26,*)   1018.93 sec, wall time     35.57 sec
    CPU time for get_k_kpts: make_kpt ki>=kj (27,*)   1080.02 sec, wall time     38.69 sec
    CPU time for get_k_kpts: make_kpt ki>=kj (28,*)   1097.77 sec, wall time     38.67 sec
    CPU time for get_k_kpts: make_kpt ki>=kj (29,*)   1126.67 sec, wall time     39.25 sec
    CPU time for get_k_kpts: make_kpt ki>=kj (30,*)   1187.31 sec, wall time     66.01 sec
    CPU time for get_k_kpts: make_kpt ki>=kj (31,*)   1192.48 sec, wall time     42.38 sec
    CPU time for get_k_kpts: make_kpt ki>=kj (32,*)   1279.89 sec, wall time     68.73 sec
    CPU time for get_k_kpts: make_kpt ki>=kj (33,*)   1243.87 sec, wall time     46.68 sec
    CPU time for get_k_kpts: make_kpt ki>=kj (34,*)   1307.49 sec, wall time     46.87 sec
    CPU time for get_k_kpts: make_kpt ki>=kj (35,*)   1310.52 sec, wall time     46.15 sec
    CPU time for get_k_kpts: make_kpt ki>=kj (36,*)   1363.57 sec, wall time     49.74 sec
    CPU time for get_k_kpts: make_kpt ki>=kj (37,*)   1414.83 sec, wall time     50.24 sec
    CPU time for get_k_kpts: make_kpt ki>=kj (38,*)   1448.25 sec, wall time     50.79 sec
    CPU time for get_k_kpts: make_kpt ki>=kj (39,*)   1568.08 sec, wall time     57.64 sec
    CPU time for get_k_kpts: make_kpt ki>=kj (40,*)   1531.95 sec, wall time     55.08 sec
    CPU time for get_k_kpts: make_kpt ki>=kj (41,*)   1640.82 sec, wall time     61.12 sec
    CPU time for get_k_kpts: make_kpt ki>=kj (42,*)   1662.07 sec, wall time     59.25 sec
    CPU time for get_k_kpts: make_kpt ki>=kj (43,*)   1714.98 sec, wall time     60.22 sec
    CPU time for get_k_kpts: make_kpt ki>=kj (44,*)   1833.58 sec, wall time     65.47 sec
    CPU time for get_k_kpts: make_kpt ki>=kj (45,*)   1821.53 sec, wall time     66.79 sec
    CPU time for get_k_kpts: make_kpt ki>=kj (46,*)   1817.26 sec, wall time     64.90 sec
    CPU time for get_k_kpts: make_kpt ki>=kj (47,*)   1887.59 sec, wall time     67.50 sec
    CPU time for get_k_kpts: make_kpt ki>=kj (48,*)   1980.44 sec, wall time     73.94 sec
    CPU time for get_k_kpts: make_kpt ki>=kj (49,*)   1987.82 sec, wall time     69.09 sec
    CPU time for get_k_kpts: make_kpt ki>=kj (50,*)   2051.45 sec, wall time     72.51 sec
    CPU time for get_k_kpts: make_kpt ki>=kj (51,*)   2059.96 sec, wall time     72.91 sec
    CPU time for get_k_kpts: make_kpt ki>=kj (52,*)   2097.40 sec, wall time     74.30 sec
    CPU time for get_k_kpts: make_kpt ki>=kj (53,*)   2150.07 sec, wall time     77.58 sec
    CPU time for get_k_kpts: make_kpt ki>=kj (54,*)   2211.33 sec, wall time     78.91 sec
    CPU time for get_k_kpts: make_kpt ki>=kj (55,*)   2195.42 sec, wall time     81.19 sec
    CPU time for get_k_kpts: make_kpt ki>=kj (56,*)   2127.36 sec, wall time     76.53 sec
    CPU time for get_k_kpts: make_kpt ki>=kj (57,*)   2219.47 sec, wall time     81.87 sec
    CPU time for get_k_kpts: make_kpt ki>=kj (58,*)   2286.76 sec, wall time     84.02 sec
    CPU time for get_k_kpts: make_kpt ki>=kj (59,*)   2251.63 sec, wall time     82.13 sec
    CPU time for get_k_kpts: make_kpt ki>=kj (60,*)   2386.44 sec, wall time     88.25 sec
    CPU time for get_k_kpts: make_kpt ki>=kj (61,*)   2283.66 sec, wall time     84.34 sec
    CPU time for get_k_kpts: make_kpt ki>=kj (62,*)   2436.34 sec, wall time     90.35 sec
    CPU time for get_k_kpts: make_kpt ki>=kj (63,*)   2454.79 sec, wall time     88.07 sec
Monkhorst pack size [4 4 4] ew_eta 0.6710327124888426 ew_cut 10.468088376274878
Ewald components = 1.93298039817556e-111, -0.378783297770942, 0.330352519723757
    CPU time for get_j pass 1   1340.15 sec, wall time     46.00 sec
    CPU time for get_j pass 2     28.28 sec, wall time     20.81 sec
    CPU time for vj and vk 591322.30 sec, wall time  26185.68 sec
Ewald components = 1.30435514859409e-35, -627.49757153652, 488.979720419325
E1 = (-568.7488499814364-3.336550620025478e-14j)  E_coul = (112.33389385048157+4.447227026066687e-16j)
init E= -594.93280724815
cond(S) = [1.82365242e+08 2.51221327e+08 2.27758959e+08 2.51221328e+08
 4.23001548e+08 2.19794372e+08 7.24391007e+07 2.19794373e+08
 8.35826169e+08 2.97982740e+08 7.95233745e+07 2.97982738e+08
 4.23001550e+08 2.19794373e+08 7.24391005e+07 2.19794374e+08
 4.23001526e+08 2.19794368e+08 7.24391002e+07 2.19794368e+08
 6.66131024e+07 1.41360255e+08 9.94967096e+07 1.41360255e+08
 6.66131027e+07 1.41360256e+08 9.94967103e+07 1.41360255e+08
 4.23001538e+08 2.19794370e+08 7.24391005e+07 2.19794367e+08
 8.35826135e+08 2.97982738e+08 7.95233752e+07 2.97982738e+08
 6.66131029e+07 1.41360256e+08 9.94967098e+07 1.41360256e+08
 8.35826180e+08 2.97982736e+08 7.95233746e+07 2.97982737e+08
 6.66131027e+07 1.41360256e+08 9.94967104e+07 1.41360256e+08
 4.23001529e+08 2.19794369e+08 7.24391004e+07 2.19794370e+08
 4.23001532e+08 2.19794368e+08 7.24391004e+07 2.19794369e+08
 6.66131024e+07 1.41360255e+08 9.94967094e+07 1.41360255e+08
 6.66131024e+07 1.41360255e+08 9.94967094e+07 1.41360254e+08]
    CPU time for initialize scf 597765.76 sec, wall time  26392.91 sec
HOMO = 0.292723129191  LUMO = 0.430725693853
     k-point                  mo_energy
   0 ( 0.000  0.000  0.000)   [-57.79760835 -57.79747847 -15.05823418 -15.05511056  -4.29123136
  -4.27438233  -2.57143889  -2.56689188  -2.56684386  -2.56632509
  -2.56626887  -2.56618776  -1.39760741  -0.72439394  -0.15832501
   0.24951236   0.24967254   0.28438162   0.28453778   0.29272313] [  0.43072569   0.66390363   0.87331738   0.95386458   0.95402558
   1.03558998   1.03935025   1.03936402   1.09845456   1.09851638
   1.10703429   1.20869401   1.20875405   1.28639832   1.41865214
   1.4507413    1.45074467   1.49641855   1.62442241   1.62442627
   1.70569761   1.77062106   1.77071628   1.80957297   1.89148359
   1.89152299   1.99833808   2.00585814   2.00588365   2.07491372
   2.07750209   2.07752095   2.15215475   2.22045119   2.32424425
   2.32424616   2.42920853   2.42921177   2.47216586   2.61937724
   2.64325015   2.6845701    2.68459024   2.73060132   2.73060617
   2.77934644   2.77937744   2.79657554   2.81654545   2.8165712
   3.018716     3.03019002   3.03021448   3.08228709   3.08235372
   3.08312949   3.117339     3.11740665   3.14311894   3.20736425
   3.20737467   3.23713143   3.37032419   3.3703384    3.41306097
   3.41308083   3.41551178   3.48070362   4.03741844   4.14931937
   4.17506573   4.17507215   4.3934015    4.64676006   4.68718044
   4.68719215   4.86501595   4.87004113   4.8700728    4.9319846
   5.03024286   5.03029073   5.04946107   5.11820536   5.11826957
   5.21574406   5.2551573    5.3168836    5.31691073   5.37661251
   5.46761197   5.4676339    5.52852775   5.52857983   5.86127235
   6.05829434   6.19223165   6.19223489   6.27235937   6.27236091
   6.29824268   6.29825827   6.40471166   6.40473138   6.42712234
   6.43239397   6.47155329   6.47155712   6.58153331   6.58156193
   6.83010223   6.8301097    6.95148158   6.97668455   7.18235517
   7.195358     7.19536271   7.28513964   9.41809168  10.04176136
  11.22373178  11.26625862  11.26626816  11.74687377  11.74688349
  11.82388364  19.82138237  19.82138697  19.82739512  19.82953198
  19.8366914   19.83670726  19.83722456  19.83767006  19.83768061
  19.85700272  19.85700418  19.86486897  19.87055643  19.87122422
  22.067977    22.23144949  22.23145645  22.25042392  22.25043193
  22.43346156  23.7141242   23.87763599  23.87764197  23.89848105
  23.89848167  24.0201873   24.03755935  24.03757013  24.06474557
  24.0703178   24.07033264  24.54343188  37.42105427  37.48452629
  37.48453882  37.96984894  38.08037629  38.08038867  39.85844289
  39.85844715  39.87096431  39.87096834  39.94390406  39.94391135
  39.94500737  39.95581509  39.95582348  39.97297117  47.75807396
  48.81675383 110.06936814 110.1876824  110.18768521 110.20654422
 110.20654717 110.30972084 117.95971628 119.20992152]
   1 ( 0.000  0.000  0.250)   [-57.79760713 -57.79748532 -15.05777959 -15.05555631  -4.28855084
  -4.27649792  -2.57108922  -2.56747745  -2.56681193  -2.56676392
  -2.56640012  -2.56634432  -1.31386484  -0.84770891  -0.08376906
   0.1997723    0.25454582   0.25467327   0.27923428   0.27933003] [  0.51105049   0.65842742   0.865869     0.95180143   0.95195615
   0.9696084    1.00626055   1.00630657   1.14125725   1.14129583
   1.15697557   1.26848886   1.26850903   1.2844226    1.37624358
   1.37625252   1.47350088   1.47900327   1.54227153   1.54227683
   1.72261395   1.76918091   1.83979677   1.83984832   1.90344856
   1.90347224   1.90969892   1.9912752    2.03897252   2.03901804
   2.16589371   2.16591002   2.26551207   2.33023338   2.33023542
   2.38250713   2.40515939   2.40516339   2.4689018    2.46895342
   2.48905633   2.59205708   2.68292861   2.7336057    2.73362112
   2.76405104   2.79391656   2.79394792   2.87393487   2.87394895
   2.92100799   2.92102525   2.99337321   3.02610727   3.06003035
   3.06008571   3.13042561   3.1304758    3.13293743   3.18880331
   3.27960638   3.27962463   3.3704964    3.37051046   3.43342975
   3.45978208   3.47114306   3.47117512   3.92126705   4.27225057
   4.27226013   4.32127813   4.34965879   4.57924799   4.66373798
   4.66374246   4.83614666   4.94051854   4.95834376   4.9583878
   5.05579515   5.05584225   5.1520036    5.15205966   5.17851384
   5.24515494   5.29846396   5.30531036   5.30533678   5.35779867
   5.4647605    5.46480951   5.59506694   5.59508398   5.98994115
   6.18161707   6.21242494   6.21243112   6.25081335   6.2508185
   6.33024228   6.33027569   6.39999134   6.40067287   6.40068344
   6.41659128   6.4751236    6.47513178   6.57901324   6.57903597
   6.86073118   6.860739     6.86772898   6.8863171    7.12893575
   7.12894128   7.16789718   7.17840452   9.77507866  10.07322848
  11.08792568  11.44810074  11.4481102   11.71804746  11.71805758
  11.73259099  19.82213492  19.82214048  19.83044934  19.8304868
  19.83159828  19.83161089  19.83585267  19.83995006  19.8399595
  19.85817288  19.85817505  19.86088338  19.86770098  19.87419909
  22.0725525   22.26776927  22.26777667  22.28144348  22.2814518
  22.57340284  23.66351944  23.85718597  23.85719154  23.87249258
  23.87249426  24.01319303  24.03252726  24.03841089  24.03842177
  24.06144492  24.06145868  24.47060813  37.20938547  37.73411158
  37.73412399  37.85639116  38.07376211  38.07377447  39.85763446
[...]
   1.54732139   1.58349347   1.58792052   1.65361085   1.68194427
   1.71346864   1.77426565   1.78461226   1.79943118   1.83841677
   1.88631189   1.89217013   1.96828067   2.00513199   2.05748939
   2.07069329   2.10292199   2.14513986   2.19207595   2.24794307
   2.26217557   2.31183511   2.32926941   2.3517104    2.41791945
   2.49504381   2.49510064   2.52402769   2.58650212   2.60323744
   2.62543204   2.66363451   2.74893293   2.80605276   2.82190032
   2.85182798   2.88480688   2.92629028   2.94534959   2.99268687
   3.01948239   3.05051741   3.12840561   3.21108973   3.22364181
   3.37295297   3.37773686   3.44926989   3.4641153    3.58499479
   3.68267062   3.70919407   3.8065455    4.20707936   4.26557308
   4.39651805   4.39795561   4.56162511   4.58667877   4.7615144
   4.85952691   4.90758414   4.94083324   5.01705127   5.06045897
   5.11516179   5.17023139   5.23767096   5.2508522    5.31348325
   5.33618976   5.40648559   5.46435964   5.49272979   5.52550138
   5.5692329    5.58510248   5.64028481   5.67648902   5.93278849
   5.9426831    6.16029179   6.2197534    6.26579081   6.29204934
   6.38265078   6.40792239   6.48441349   6.49020938   6.52243363
   6.56952071   6.60603382   6.66459197   6.73963479   6.75140145
   6.91949664   6.99225539   7.1093938    7.17393791   7.18422812
   7.28714402   7.43267634   7.54216291  10.05750641  10.26592889
  11.32385199  11.37844096  11.51246629  11.63944349  11.64469294
  11.84497649  19.7553564   19.76018039  19.76117609  19.76443041
  19.7654383   19.77129881  19.77427599  19.78017228  19.78533371
  19.78545497  19.78918947  19.78994679  19.79622952  19.79658413
  22.25293487  22.25612607  22.33152612  22.34691322  22.44292856
  22.60271347  23.71950849  23.76469406  23.78822147  23.81513104
  23.82676197  23.89023319  23.93852098  23.97599973  24.02692517
  24.04375415  24.35202414  24.74634833  37.51984111  37.53396377
  37.6954244   37.85077502  37.92173302  38.11469267  39.94235154
  39.94936762  39.97441782  39.97874697  40.05882717  40.06153305
  40.06809951  40.08251183  40.13151353  40.14022989  48.67627055
  48.7370369  110.20189031 110.20836502 110.26515171 110.28056753
 110.34750611 110.47390786 118.61656865 119.44923088]
  60 ( 0.750  0.750  0.000)   [-5.78940327e+01 -5.78940324e+01 -1.49522996e+01 -1.49522865e+01
 -4.30635430e+00 -4.30632759e+00 -2.62241763e+00 -2.62237623e+00
 -2.62233765e+00 -2.62224780e+00 -2.62215452e+00 -2.62209717e+00
 -5.13706966e-01 -4.75595328e-01 -4.36348400e-02 -2.01607926e-02
  5.14034329e-03  3.89304047e-02  8.54301852e-02  1.02170983e-01] [  0.71406985   0.81730348   0.87392603   0.91001848   0.95943781
   0.99987448   1.02736147   1.12546455   1.18272284   1.19320491
   1.32784108   1.36263709   1.37826797   1.39217754   1.47651447
   1.51846905   1.55327533   1.62400104   1.62651891   1.69806328
   1.72373396   1.74592126   1.78990479   1.7967252    1.85708785
   1.91571312   1.92170396   1.9880636    2.0150901    2.04696815
   2.04979908   2.09759929   2.10362925   2.23450398   2.26213987
   2.28817012   2.30811378   2.33630715   2.4021399    2.43966896
   2.47611082   2.5185232    2.54549099   2.59106832   2.61086339
   2.64235498   2.6459351    2.72580378   2.729821     2.82617047
   2.88762119   2.90085535   2.90752474   2.95604576   2.96359209
   3.04789954   3.05438146   3.10406795   3.17164564   3.25474142
   3.34753379   3.4018996    3.47852376   3.53168952   3.55712964
   3.70883587   3.72746211   3.80405067   4.18561744   4.20305554
   4.47709573   4.52977764   4.59408831   4.59470968   4.69324679
   4.81241882   4.85425844   4.90269275   4.98774593   5.07723681
   5.10498926   5.12257418   5.21702214   5.24762963   5.3273434
   5.3575067    5.43026931   5.44682055   5.50658189   5.51921411
   5.56678569   5.56874388   5.62803604   5.68956368   6.02817456
   6.07308715   6.15023708   6.19561502   6.21409297   6.26044367
   6.36098643   6.38829883   6.44831069   6.45219763   6.49287166
   6.55988407   6.56128428   6.63974914   6.74852683   6.75125704
   6.94510939   7.0099936    7.03395467   7.23491959   7.24202888
   7.35779829   7.47986332   7.70315182   9.91855706  10.23012722
  11.36713838  11.38132025  11.62151913  11.74993917  11.7849084
  11.91940383  19.75582882  19.76089538  19.76467154  19.7658448
  19.76960527  19.77106367  19.77610484  19.77904467  19.78223559
  19.78318049  19.79058574  19.79121336  19.79245455  19.79309179
  22.23079147  22.26204762  22.2703703   22.28542495  22.46466287
  22.63754874  23.70177608  23.76962144  23.79663851  23.82677708
  23.84625496  23.88254987  23.93402551  24.00176894  24.05548553
  24.0651284   24.26288469  25.00769872  37.51808723  37.53522513
  37.86488434  37.95879586  38.09002655  38.2587729   39.92950766
  39.93614302  39.94801296  39.96343959  40.04480502  40.04996536
  40.08204013  40.10019706  40.15282164  40.15392133  48.54623061
  48.79546416 110.18198782 110.20318008 110.21799214 110.22339678
 110.36002241 110.51016707 118.49636184 119.92909472]
  61 ( 0.750  0.750  0.250)   [-5.78940327e+01 -5.78940324e+01 -1.49522976e+01 -1.49522883e+01
 -4.30635086e+00 -4.30633195e+00 -2.62247570e+00 -2.62240781e+00
 -2.62226652e+00 -2.62224158e+00 -2.62212139e+00 -2.62211200e+00
 -5.08093947e-01 -4.81028279e-01 -5.35486283e-02 -4.73253728e-02
  2.11648845e-02  5.38336564e-02  7.76726428e-02  1.27384722e-01] [  0.73536354   0.79334153   0.8553065    0.8958762    0.9854244
   1.00084696   1.01680702   1.12037154   1.16056089   1.1972439
   1.28907293   1.31253429   1.43068909   1.47385114   1.48632945
   1.5473241    1.58349599   1.58792224   1.65361499   1.68194665
   1.71347124   1.77426645   1.7846111    1.7994408    1.83841617
   1.88631247   1.89217384   1.96828011   2.00513957   2.05749577
   2.07069633   2.10292638   2.14514054   2.19207993   2.2479521
   2.26217643   2.31183764   2.32927402   2.35170437   2.41792129
   2.49504489   2.49509955   2.5240298    2.58649251   2.60323058
   2.62542758   2.66363411   2.74893758   2.806055     2.82189983
   2.85182749   2.88481306   2.92628528   2.94535292   2.99268322
   3.0194707    3.05052866   3.12840428   3.21108612   3.22364408
   3.37295693   3.37773584   3.44926544   3.4641204    3.58499132
   3.68266507   3.70919436   3.80653852   4.20707525   4.26557151
   4.39651752   4.39795334   4.56162206   4.58667866   4.76151695
   4.85952659   4.90758335   4.94083129   5.01705065   5.06046094
   5.11516272   5.17023129   5.23767127   5.25085223   5.31348232
   5.33618965   5.40648477   5.46435802   5.49272647   5.52550377
   5.56923117   5.58510036   5.64028323   5.67648874   5.93279116
   5.94268323   6.16029215   6.21975249   6.26578959   6.29205056
   6.38265015   6.40792138   6.48441196   6.49020748   6.52243237
   6.5695181    6.60603442   6.6645907    6.73963412   6.75140081
   6.91949558   6.99225626   7.10939212   7.17393752   7.18422777
   7.28714163   7.43267726   7.54215826  10.05750564  10.26593028
  11.32385133  11.37844069  11.51246575  11.63944167  11.64469216
  11.84497237  19.75535643  19.76018041  19.76117611  19.76443042
  19.76543829  19.77129879  19.77427596  19.7801723   19.78533368
  19.78545502  19.78918946  19.7899468   19.79622949  19.79658407
  22.25293453  22.25612593  22.331526    22.34691334  22.44292832
  22.60271256  23.71950851  23.76469391  23.78822143  23.81513092
  23.82676182  23.890233    23.93852089  23.97599959  24.02692524
  24.04375408  24.35202405  24.74634696  37.51984113  37.5339638
  37.69542407  37.85077425  37.92173281  38.11469166  39.94235158
  39.94936762  39.97441775  39.97874716  40.05882737  40.06153307
  40.06809939  40.08251137  40.13151353  40.14022985  48.67626996
  48.73703669 110.20189028 110.20836503 110.26515168 110.28056751
 110.34750607 110.47390775 118.61656863 119.44923054]
  62 ( 0.750  0.750  0.500)   [-5.78940327e+01 -5.78940324e+01 -1.49522933e+01 -1.49522922e+01
 -4.30634187e+00 -4.30634160e+00 -2.62247558e+00 -2.62247551e+00
 -2.62221727e+00 -2.62221708e+00 -2.62211682e+00 -2.62211679e+00
 -4.94484593e-01 -4.94484205e-01 -6.10952312e-02 -6.10950649e-02
  3.28040291e-02  3.28043000e-02  1.23966028e-01  1.23966099e-01] [  0.76128199   0.76128214   0.86871112   0.86871119   1.00296334
   1.00296353   1.03438172   1.03438186   1.18512418   1.18512428
   1.30607945   1.30607954   1.4559632    1.45596362   1.54469242
   1.54469259   1.61521998   1.61522012   1.62791104   1.62791164
   1.76795476   1.76795495   1.81429756   1.81429775   1.85978225
   1.85978267   1.91456072   1.91456132   1.97672667   1.97672815
   2.11326399   2.11326447   2.16002404   2.16002419   2.25604704
   2.25604791   2.29430206   2.29430368   2.35512578   2.3551259
   2.48957623   2.48957773   2.54344951   2.54345209   2.66909507
   2.66909559   2.71310078   2.71310127   2.83717932   2.83718172
   2.86634054   2.86634094   2.93286006   2.93286124   3.01224343
   3.01224491   3.09373713   3.09373813   3.2422783    3.2422796
   3.32691134   3.32691171   3.41995945   3.41996164   3.63872751
   3.638729     3.77332259   3.7733233    4.30252235   4.3025227
   4.32338984   4.32339018   4.47027683   4.47027701   4.84998338
   4.84998361   4.94087902   4.94087932   5.03120948   5.03121027
   5.21756238   5.21756304   5.25696019   5.25696059   5.3740432
   5.37404386   5.43428121   5.43428218   5.47935326   5.47935341
   5.53598148   5.53598212   5.67035765   5.67035819   5.83359786
   5.83359808   6.22918514   6.22918544   6.26173224   6.26173263
   6.45092267   6.45092281   6.50752536   6.50752569   6.552963
   6.55296348   6.67740939   6.67740981   6.77666856   6.7766692
   6.91097851   6.91097921   7.08882007   7.08882053   7.23792122
   7.23792209   7.35857861   7.35857928  10.20309246  10.20309264
  11.24532195  11.24532218  11.50157081  11.50157094  11.70878931
  11.70879011  19.7572727   19.75727279  19.76211794  19.76211816
  19.76411899  19.76411906  19.77808334  19.77808346  19.78607483
  19.78607502  19.79051037  19.79051042  19.80056058  19.80056062
  22.25705996  22.25706078  22.41841642  22.41841734  22.47112745
  22.47112826  23.75836544  23.75836557  23.78196735  23.78196761
  23.87581998  23.87582003  23.96073728  23.96073738  23.99487088
  23.99487108  24.45959746  24.45959819  37.40500937  37.40500964
  37.70638318  37.70638326  37.93849351  37.93849392  39.95347032
  39.95347128  39.99794736  39.99794813  40.06001616  40.06001709
  40.07492341  40.0749239   40.13467551  40.13467633  48.70518008
  48.70518036 110.20950813 110.2095091  110.33960964 110.33961074
 110.37492173 110.37492267 118.86236793 118.86236907]
  63 ( 0.750  0.750  0.750)   [-5.78940327e+01 -5.78940324e+01 -1.49522976e+01 -1.49522883e+01
 -4.30635086e+00 -4.30633195e+00 -2.62247570e+00 -2.62240781e+00
 -2.62226652e+00 -2.62224158e+00 -2.62212139e+00 -2.62211200e+00
 -5.08093946e-01 -4.81028280e-01 -5.35486461e-02 -4.73253628e-02
  2.11648896e-02  5.38336630e-02  7.76726745e-02  1.27384688e-01] [  0.73536351   0.79334155   0.85530653   0.89587622   0.98542444
   1.00084695   1.01680704   1.12037152   1.16056086   1.19724389
   1.289073     1.31253418   1.43068909   1.4738513    1.48632937
   1.5473239    1.58349593   1.58792237   1.6536149    1.68194657
   1.71347092   1.77426633   1.78461097   1.79944084   1.83841621
   1.88631266   1.89217451   1.96828028   2.0051396    2.05749596
   2.07069618   2.10292642   2.1451399    2.19207917   2.24795126
   2.26217642   2.31183863   2.32927364   2.35170525   2.41792161
   2.49504585   2.4951007    2.52402943   2.58649097   2.60323205
   2.62542722   2.66363461   2.74893822   2.80605415   2.82190093
   2.85182794   2.88481269   2.92628397   2.94535231   2.99268376
   3.01947031   3.05052725   3.12840425   3.21108467   3.22364412
   3.37295616   3.37773606   3.4492644    3.46412052   3.58499147
   3.68266733   3.70919453   3.80653774   4.2070747    4.26557139
   4.39651784   4.3979531    4.56162219   4.58667857   4.76151702
   4.85952645   4.9075833    4.94083138   5.01705093   5.06046096
   5.1151627    5.17023141   5.23767128   5.25085204   5.31348237
   5.33619001   5.40648417   5.46435822   5.49272606   5.52550383
   5.56923153   5.58510072   5.64028354   5.67648818   5.93279145
   5.94268314   6.16029224   6.21975251   6.2657899    6.29205019
   6.38265009   6.40792098   6.4844121    6.49020751   6.52243234
   6.56951791   6.60603447   6.66459045   6.73963424   6.75140046
   6.9194958    6.99225605   7.10939186   7.17393737   7.18422784
   7.28714194   7.43267736   7.54215803  10.05750552  10.26593035
  11.32385118  11.37844053  11.51246568  11.63944209  11.64469202
  11.84497259  19.75535643  19.76018041  19.76117611  19.76443042
  19.76543828  19.7712988   19.77427597  19.7801723   19.78533369
  19.78545502  19.78918945  19.78994681  19.79622948  19.79658408
  22.25293457  22.25612583  22.33152604  22.34691333  22.44292836
  22.60271253  23.71950851  23.7646939   23.78822139  23.81513092
  23.82676181  23.89023297  23.93852088  23.97599959  24.02692524
  24.04375408  24.35202406  24.74634689  37.51984107  37.53396374
  37.69542405  37.85077436  37.92173277  38.11469175  39.94235156
  39.94936763  39.97441774  39.97874717  40.05882736  40.06153306
  40.0680994   40.08251137  40.13151355  40.14022985  48.67626997
  48.73703667 110.20189029 110.20836501 110.26515168 110.28056751
 110.34750608 110.47390774 118.61656864 119.44923052]
    CPU time for get_k_kpts: make_kpt ki>=kj (0,*)     26.67 sec, wall time      1.16 sec
    CPU time for get_k_kpts: make_kpt ki>=kj (1,*)     58.55 sec, wall time      2.22 sec
    CPU time for get_k_kpts: make_kpt ki>=kj (2,*)    107.86 sec, wall time      3.74 sec
    CPU time for get_k_kpts: make_kpt ki>=kj (3,*)    157.44 sec, wall time      5.42 sec
    CPU time for get_k_kpts: make_kpt ki>=kj (4,*)    189.10 sec, wall time      6.62 sec
    CPU time for get_k_kpts: make_kpt ki>=kj (5,*)    222.71 sec, wall time      7.55 sec
    CPU time for get_k_kpts: make_kpt ki>=kj (6,*)    271.07 sec, wall time      9.73 sec
    CPU time for get_k_kpts: make_kpt ki>=kj (7,*)    298.50 sec, wall time     10.90 sec
    CPU time for get_k_kpts: make_kpt ki>=kj (8,*)    335.25 sec, wall time     11.88 sec
    CPU time for get_k_kpts: make_kpt ki>=kj (9,*)    368.44 sec, wall time     13.21 sec
    CPU time for get_k_kpts: make_kpt ki>=kj (10,*)    407.33 sec, wall time     14.75 sec
    CPU time for get_k_kpts: make_kpt ki>=kj (11,*)    464.85 sec, wall time     16.23 sec
    CPU time for get_k_kpts: make_kpt ki>=kj (12,*)    521.67 sec, wall time     21.01 sec
    CPU time for get_k_kpts: make_kpt ki>=kj (13,*)    517.75 sec, wall time     18.68 sec
    CPU time for get_k_kpts: make_kpt ki>=kj (14,*)    578.23 sec, wall time     20.01 sec
    CPU time for get_k_kpts: make_kpt ki>=kj (15,*)    601.66 sec, wall time     21.22 sec
    CPU time for get_k_kpts: make_kpt ki>=kj (16,*)    640.71 sec, wall time     23.02 sec
    CPU time for get_k_kpts: make_kpt ki>=kj (17,*)    693.25 sec, wall time     26.32 sec
    CPU time for get_k_kpts: make_kpt ki>=kj (18,*)    740.84 sec, wall time     26.29 sec
    CPU time for get_k_kpts: make_kpt ki>=kj (19,*)    775.73 sec, wall time     27.58 sec
    CPU time for get_k_kpts: make_kpt ki>=kj (20,*)    798.52 sec, wall time     28.08 sec
    CPU time for get_k_kpts: make_kpt ki>=kj (21,*)    820.72 sec, wall time     28.56 sec
    CPU time for get_k_kpts: make_kpt ki>=kj (22,*)    847.47 sec, wall time     29.98 sec
    CPU time for get_k_kpts: make_kpt ki>=kj (23,*)    903.28 sec, wall time     31.36 sec
    CPU time for get_k_kpts: make_kpt ki>=kj (24,*)    970.94 sec, wall time     56.73 sec
    CPU time for get_k_kpts: make_kpt ki>=kj (25,*)   1004.02 sec, wall time     40.52 sec
    CPU time for get_k_kpts: make_kpt ki>=kj (26,*)   1045.13 sec, wall time     57.92 sec
    CPU time for get_k_kpts: make_kpt ki>=kj (27,*)   1086.94 sec, wall time     43.18 sec
    CPU time for get_k_kpts: make_kpt ki>=kj (28,*)   1132.31 sec, wall time     41.29 sec
    CPU time for get_k_kpts: make_kpt ki>=kj (29,*)   1103.72 sec, wall time     38.80 sec
    CPU time for get_k_kpts: make_kpt ki>=kj (30,*)   1172.16 sec, wall time     42.32 sec
    CPU time for get_k_kpts: make_kpt ki>=kj (31,*)   1213.14 sec, wall time     42.59 sec
    CPU time for get_k_kpts: make_kpt ki>=kj (32,*)   1284.41 sec, wall time     48.30 sec
    CPU time for get_k_kpts: make_kpt ki>=kj (33,*)   1292.36 sec, wall time     47.14 sec
    CPU time for get_k_kpts: make_kpt ki>=kj (34,*)   1333.55 sec, wall time     47.47 sec
    CPU time for get_k_kpts: make_kpt ki>=kj (35,*)   1354.02 sec, wall time     49.21 sec
    CPU time for get_k_kpts: make_kpt ki>=kj (36,*)   1399.86 sec, wall time     48.87 sec
    CPU time for get_k_kpts: make_kpt ki>=kj (37,*)   1477.37 sec, wall time     54.37 sec
    CPU time for get_k_kpts: make_kpt ki>=kj (38,*)   1504.22 sec, wall time     53.30 sec
    CPU time for get_k_kpts: make_kpt ki>=kj (39,*)   1547.00 sec, wall time     57.80 sec
    CPU time for get_k_kpts: make_kpt ki>=kj (40,*)   1544.17 sec, wall time     54.28 sec
    CPU time for get_k_kpts: make_kpt ki>=kj (41,*)   1581.08 sec, wall time     55.44 sec
    CPU time for get_k_kpts: make_kpt ki>=kj (42,*)   1595.91 sec, wall time     56.81 sec
    CPU time for get_k_kpts: make_kpt ki>=kj (43,*)   1633.98 sec, wall time     57.49 sec
    CPU time for get_k_kpts: make_kpt ki>=kj (44,*)   1746.48 sec, wall time     63.05 sec
    CPU time for get_k_kpts: make_kpt ki>=kj (45,*)   1727.66 sec, wall time     60.27 sec
    CPU time for get_k_kpts: make_kpt ki>=kj (46,*)   1760.71 sec, wall time     64.61 sec
    CPU time for get_k_kpts: make_kpt ki>=kj (47,*)   1803.43 sec, wall time     64.76 sec
    CPU time for get_k_kpts: make_kpt ki>=kj (48,*)   1813.04 sec, wall time     65.99 sec
    CPU time for get_k_kpts: make_kpt ki>=kj (49,*)   1924.06 sec, wall time     69.60 sec
    CPU time for get_k_kpts: make_kpt ki>=kj (50,*)   1988.72 sec, wall time     72.30 sec
    CPU time for get_k_kpts: make_kpt ki>=kj (51,*)   1982.75 sec, wall time     70.06 sec
    CPU time for get_k_kpts: make_kpt ki>=kj (52,*)   2003.04 sec, wall time     70.48 sec
    CPU time for get_k_kpts: make_kpt ki>=kj (53,*)   2036.01 sec, wall time     71.40 sec
    CPU time for get_k_kpts: make_kpt ki>=kj (54,*)   2102.33 sec, wall time     75.07 sec
    CPU time for get_k_kpts: make_kpt ki>=kj (55,*)   2166.94 sec, wall time     79.19 sec
    CPU time for get_k_kpts: make_kpt ki>=kj (56,*)   2180.36 sec, wall time     78.51 sec
    CPU time for get_k_kpts: make_kpt ki>=kj (57,*)   2199.35 sec, wall time    102.94 sec
    CPU time for get_k_kpts: make_kpt ki>=kj (58,*)   2250.75 sec, wall time     80.58 sec
    CPU time for get_k_kpts: make_kpt ki>=kj (59,*)   2262.89 sec, wall time     82.50 sec
    CPU time for get_k_kpts: make_kpt ki>=kj (60,*)   2405.62 sec, wall time     90.38 sec
    CPU time for get_k_kpts: make_kpt ki>=kj (61,*)   2364.14 sec, wall time     85.14 sec
    CPU time for get_k_kpts: make_kpt ki>=kj (62,*)   2414.36 sec, wall time     87.04 sec
    CPU time for get_k_kpts: make_kpt ki>=kj (63,*)   2463.25 sec, wall time     90.64 sec
Monkhorst pack size [4 4 4] ew_eta 0.6710327124888426 ew_cut 10.468088376274878
Ewald components = 1.93298039817556e-111, -0.378783297770942, 0.330352519723757
    CPU time for get_j pass 1   1276.28 sec, wall time     42.36 sec
    CPU time for get_j pass 2     27.19 sec, wall time     19.85 sec
    CPU time for vj and vk  80534.63 sec, wall time   2986.47 sec
Ewald components = 1.30435514859409e-35, -627.49757153652, 488.979720419325
E1 = (-567.710882981313-1.9502663134002926e-12j)  E_coul = (113.09007224463402-1.6035738544046653e-12j)
Extra cycle  E= -593.138661853874  delta_E= -3.03e-10  |g|= 7.7e-05  |ddm|= 0.0368
    CPU time for scf_cycle 1244743.81 sec, wall time  50311.63 sec
    CPU time for SCF 1244743.85 sec, wall time  50311.67 sec
converged SCF energy = -593.138661853874
