#INFO: **** input file is /burg/ccce/users/eav2136/projects/core_level_spectroscopy/01_peommp2_cbe/meanfield.py ****
#!/usr/bin/env python
import json
from pyscf.pbc import gto, scf
from pyscf.pbc.tools import lattice, pyscf_ase
from pyscf.pbc.scf import chkfile
from fileutils import load, dump
import sys

material = load("data/{}".format(sys.argv[1]))
# Create Cell
cell = gto.Cell()
ase_atom = lattice.get_ase_atom(material["formula"])
cell.atom = pyscf_ase.ase_atoms_to_pyscf(ase_atom)
cell.a = ase_atom.cell[:]
cell.unit = "B"
cell.basis = material["basis"]
cell.exp_to_discard = material["exp_to_discard"]
cell.verbose = 7
cell.build()

# Mean Field
kdensity = material["kdensity"]
kmesh = [kdensity, kdensity, kdensity]
kpts = cell.make_kpts(kmesh, scaled_center=material["vb_scaled_center"])
mymf = scf.KRHF(cell, kpts=kpts, exxdiv="ewald")
mymf.chkfile = "data/{}".format(material["chk"])
mymf = mymf.density_fit()
mymf.with_df._cderi_to_save = "data/{}".format(material["cderi"])
ekrhf = mymf.kernel()
convergence = mymf.converged
mymf_data = dict([("ekrhf", float(ekrhf)),
                  ("convergence", bool(convergence))])
dump(mymf_data, "data/{}".format(material["ekrhf"]))
#INFO: ******************** input file end ********************


System: uname_result(system='Linux', node='g147', release='4.18.0-193.el8.x86_64', version='#1 SMP Fri Mar 27 14:35:58 UTC 2020', machine='x86_64')  Threads 32
Python 3.10.12 (main, Jul 29 2023, 11:27:27) [GCC 13.2.0]
numpy 1.25.1  scipy 1.10.1
Date: Thu Jan 25 11:43:07 2024
PySCF version 2.0.1
PySCF path  /burg/berkelbach/users/eav2136/builds/pyscf/projected-cvs/pyscf
GIT ORIG_HEAD 0bfbc692adf3ea63b8a509210433219cd1c472a2
GIT HEAD (branch projected-cvs) e14caaa2dddc538b9be2d86f01e5b456fc92da36

[ENV] PYSCF_TMPDIR /burg/ccce/users/eav2136/projects/core_level_spectroscopy/01_peommp2_cbe/tmp
[ENV] PYSCF_MAX_MEMORY 700000
[CONFIG] DEBUG = False
[CONFIG] MAX_MEMORY = 700000
[CONFIG] TMPDIR = /burg/ccce/users/eav2136/projects/core_level_spectroscopy/01_peommp2_cbe/tmp
[CONFIG] UNIT = angstrom
[CONFIG] VERBOSE = 3
[CONFIG] conf_file = None
[INPUT] verbose = 7
[INPUT] max_memory = 700000 
[INPUT] num. atoms = 4
[INPUT] num. electrons = 40
[INPUT] charge = 0
[INPUT] spin (= nelec alpha-beta = 2S) = 0
[INPUT] symmetry False subgroup None
[INPUT] Mole.unit = B
[INPUT]  1 Al     0.000000000000   0.000000000000   0.000000000000 AA    0.000000000000   0.000000000000   0.000000000000 Bohr
[INPUT]  2 N      0.000000000000   1.795559208370   0.597603705456 AA    0.000000000000   3.393115144260   1.129307334337 Bohr
[INPUT]  3 Al     0.000000000000   1.795559208370   2.489999821373 AA    0.000000000000   3.393115144260   4.705417712610 Bohr
[INPUT]  4 N      0.000000000000   0.000000000000   3.087603526828 AA    0.000000000000   0.000000000000   5.834725046947 Bohr
[INPUT] ---------------- BASIS SET ---------------- 
[INPUT] l, kappa, [nprim/nctr], expnt,             c_1 c_2 ...
[INPUT] N
[INPUT] 0    0    [8    /2   ]  11420             0.000523 -0.000115
                                1712              0.004045 -0.000895
                                389.3             0.020775 -0.004624
                                110               0.080727 -0.018528
                                35.57             0.233074 -0.057339
                                12.54             0.433501 -0.132076
                                4.644             0.347472 -0.17251
                                0.5118            -0.008508 0.599944
[INPUT] 0    0    [1    /1   ]  1.293                1
[INPUT] 0    0    [1    /1   ]  0.1787               1
[INPUT] 1    0    [3    /1   ]  26.63             0.01467
                                5.948             0.091764
                                1.742             0.298683
[INPUT] 1    0    [1    /1   ]  0.555                1
[INPUT] 1    0    [1    /1   ]  0.1725               1
[INPUT] 2    0    [1    /1   ]  1.654                1
[INPUT] 2    0    [1    /1   ]  0.469                1
[INPUT] 3    0    [1    /1   ]  1.093                1
[INPUT] 0    0    [1    /1   ]  5.952                1
[INPUT] 0    0    [1    /1   ]  16.201               1
[INPUT] 1    0    [1    /1   ]  11.871               1
[INPUT] 1    0    [1    /1   ]  44.849               1
[INPUT] 2    0    [1    /1   ]  14.2                 1
[INPUT] Al
[INPUT] 0    0    [13   /3   ]  205500            6.78836e-05 -1.76377e-05 4.07315e-06
                                30780             0.000527149 -0.000137195 3.16566e-05
                                7006              0.00276203 -0.00071891 0.000166116
                                1985              0.0114728 -0.00301146 0.000694992
                                649.1             0.0398188 -0.0106014 0.00245511
                                235               0.11504 -0.0321345 0.00744598
                                91.62             0.260887 -0.0803156 0.0188253
                                37.67             0.396386 -0.156794 0.0372772
                                15.91             0.284597 -0.168376 0.0419496
                                5.85              0.0444583 0.126879 -0.0354375
                                2.542             -0.00489838 0.561494 -0.175132
                                1.057             0.00261253 0.436613 -0.276203
                                0.1455            0.000722068 -0.0114563 0.652809
[INPUT] 0    0    [1    /1   ]  0.2931               1
[INPUT] 0    0    [1    /1   ]  0.0565               1
[INPUT] 1    0    [7    /2   ]  444.4             0.00162786 -0.000286341
                                105.1             0.0130687 -0.00242308
                                33.47             0.0612341 -0.0108658
                                12.33             0.18787 -0.0364307
                                4.869             0.360452 -0.0641074
                                1.961             0.408454 -0.0972239
                                0.1888            0.00976514 0.503448
[INPUT] 1    0    [1    /1   ]  0.7834               1
[INPUT] 1    0    [1    /1   ]  0.05557              1
[INPUT] 2    0    [1    /1   ]  0.109                1
[INPUT] 2    0    [1    /1   ]  0.333                1
[INPUT] 3    0    [1    /1   ]  0.244                1
[INPUT] 0    0    [1    /1   ]  7.488                1
[INPUT] 0    0    [1    /1   ]  1.272                1
[INPUT] 1    0    [1    /1   ]  2.202                1
[INPUT] 1    0    [1    /1   ]  5.548                1
[INPUT] 2    0    [1    /1   ]  2.634                1
[INPUT] 2    0    [1    /1   ]  8.646                1
[INPUT] 3    0    [1    /1   ]  5.686                1

Ewald components = 1.30435514859409e-35, -627.49757153652, 488.979720419325
nuclear repulsion = -138.517851117195
number of shells = 60
number of NR pGTOs = 278
number of NR cGTOs = 204
basis = ccpcvtz
ecp = {}
bas 0, expnt(s) = [2.055e+05 3.078e+04 7.006e+03 1.985e+03 6.491e+02 2.350e+02 9.162e+01
 3.767e+01 1.591e+01 5.850e+00 2.542e+00 1.057e+00 1.455e-01]
bas 1, expnt(s) = [0.2931]
bas 2, expnt(s) = [0.0565]
bas 3, expnt(s) = [4.444e+02 1.051e+02 3.347e+01 1.233e+01 4.869e+00 1.961e+00 1.888e-01]
bas 4, expnt(s) = [0.7834]
bas 5, expnt(s) = [0.05557]
bas 6, expnt(s) = [0.109]
bas 7, expnt(s) = [0.333]
bas 8, expnt(s) = [0.244]
bas 9, expnt(s) = [7.488]
bas 10, expnt(s) = [1.272]
bas 11, expnt(s) = [2.202]
bas 12, expnt(s) = [5.548]
bas 13, expnt(s) = [2.634]
bas 14, expnt(s) = [8.646]
bas 15, expnt(s) = [5.686]
bas 16, expnt(s) = [1.142e+04 1.712e+03 3.893e+02 1.100e+02 3.557e+01 1.254e+01 4.644e+00
 5.118e-01]
bas 17, expnt(s) = [1.293]
bas 18, expnt(s) = [0.1787]
bas 19, expnt(s) = [26.63   5.948  1.742]
bas 20, expnt(s) = [0.555]
bas 21, expnt(s) = [0.1725]
bas 22, expnt(s) = [1.654]
bas 23, expnt(s) = [0.469]
bas 24, expnt(s) = [1.093]
bas 25, expnt(s) = [5.952]
bas 26, expnt(s) = [16.201]
bas 27, expnt(s) = [11.871]
bas 28, expnt(s) = [44.849]
bas 29, expnt(s) = [14.2]
bas 30, expnt(s) = [2.055e+05 3.078e+04 7.006e+03 1.985e+03 6.491e+02 2.350e+02 9.162e+01
 3.767e+01 1.591e+01 5.850e+00 2.542e+00 1.057e+00 1.455e-01]
bas 31, expnt(s) = [0.2931]
bas 32, expnt(s) = [0.0565]
bas 33, expnt(s) = [4.444e+02 1.051e+02 3.347e+01 1.233e+01 4.869e+00 1.961e+00 1.888e-01]
bas 34, expnt(s) = [0.7834]
bas 35, expnt(s) = [0.05557]
bas 36, expnt(s) = [0.109]
bas 37, expnt(s) = [0.333]
bas 38, expnt(s) = [0.244]
bas 39, expnt(s) = [7.488]
bas 40, expnt(s) = [1.272]
bas 41, expnt(s) = [2.202]
bas 42, expnt(s) = [5.548]
bas 43, expnt(s) = [2.634]
bas 44, expnt(s) = [8.646]
bas 45, expnt(s) = [5.686]
bas 46, expnt(s) = [1.142e+04 1.712e+03 3.893e+02 1.100e+02 3.557e+01 1.254e+01 4.644e+00
 5.118e-01]
bas 47, expnt(s) = [1.293]
bas 48, expnt(s) = [0.1787]
bas 49, expnt(s) = [26.63   5.948  1.742]
bas 50, expnt(s) = [0.555]
bas 51, expnt(s) = [0.1725]
bas 52, expnt(s) = [1.654]
bas 53, expnt(s) = [0.469]
bas 54, expnt(s) = [1.093]
bas 55, expnt(s) = [5.952]
bas 56, expnt(s) = [16.201]
bas 57, expnt(s) = [11.871]
bas 58, expnt(s) = [44.849]
bas 59, expnt(s) = [14.2]
CPU time:         1.14
lattice vectors  a1 [5.877047826, 0.000000000, 0.000000000]
                 a2 [-2.938523913, 5.089672716, 0.000000000]
                 a3 [0.000000000, 0.000000000, 9.410835425]
dimension = 3
low_dim_ft_type = None
Cell volume = 281.499
rcut = 32.79019015615983 (nimgs = [7 7 4])
lattice sum = 1229 cells
precision = 1e-08
pseudo = None
ke_cutoff = 433261.4263657037
    = [1509 1509 2789] mesh (6350778909 PWs)


******** <class 'pyscf.pbc.scf.khf.KRHF'> ********
method = KRHF-KSCF-RHF-SCF-RHF
initial guess = minao
damping factor = 0
level_shift factor = 0
DIIS = <class 'pyscf.scf.diis.CDIIS'>
diis_start_cycle = 1
diis_space = 8
SCF conv_tol = 1e-07
SCF conv_tol_grad = None
SCF max_cycles = 50
direct_scf = True
direct_scf_tol = 1e-13
chkfile to save SCF result = data/aln_ccpcvtz_k2_N_1s_nvir_act39.chk
max_memory 700000 MB (current use 114 MB)


******** PBC SCF flags ********
N kpts = 8
kpts = [[0.         0.         0.        ]
 [0.         0.         0.33382718]
 [0.         0.61724846 0.        ]
 [0.         0.61724846 0.33382718]
 [0.53455285 0.30862423 0.        ]
 [0.53455285 0.30862423 0.33382718]
 [0.53455285 0.92587269 0.        ]
 [0.53455285 0.92587269 0.33382718]]
Exchange divergence treatment (exxdiv) = ewald
Monkhorst pack size [2 2 2] ew_eta 1.3059867597572923 ew_cut 5.384097344598738
Ewald components = 2.1452953489755e-105, -0.737233080691535, 0.64037152459719
    madelung (= occupied orbital energy shift) = 0.19372311218869132
    Total energy shift due to Ewald probe charge = -1/2 * Nelec*madelung = -3.87446224377
DF object = <pyscf.pbc.df.df.GDF object at 0x155535b7a5f0>
Set gradient conv threshold to 0.000316228
Big error detected in the electron number of initial guess density matrix (Ne/cell = 39.9505)!
  This can cause huge error in Fock matrix and lead to instability in SCF for low-dimensional systems.
  DM is normalized wrt the number of electrons 40.0
    CPU time for vnuc pass1: analytic int   2786.01 sec, wall time     87.85 sec
    CPU time for contracting Vnuc [0:896]    220.77 sec, wall time      7.12 sec
    CPU time for contracting Vnuc    220.77 sec, wall time      7.12 sec
    CPU time for get_nuc   3007.11 sec, wall time     94.98 sec


******** <class 'pyscf.pbc.df.df.GDF'> ********
mesh = [9, 9, 15] (1215 PWs)
auxbasis = None
eta = 0.2
exp_to_discard = None
_cderi_to_save = data/aln_ccpcvtz_k2_N_1s_nvir_act39_cderi.h5
len(kpts) = 8
    kpts = [[0.         0.         0.        ]
 [0.         0.         0.33382718]
 [0.         0.61724846 0.        ]
 [0.         0.61724846 0.33382718]
 [0.53455285 0.30862423 0.        ]
 [0.53455285 0.30862423 0.33382718]
 [0.53455285 0.92587269 0.        ]
 [0.53455285 0.92587269 0.33382718]]
Even tempered Gaussians are generated as DF auxbasis for  N Al
  ETB auxbasis for N  [[0, [2927.8208, 1]], [0, [1463.9104, 1]], [0, [731.9552, 1]], [0, [365.9776, 1]], [0, [182.9888, 1]], [0, [91.4944, 1]], [0, [45.7472, 1]], [0, [22.8736, 1]], [0, [11.4368, 1]], [0, [5.7184, 1]], [0, [2.8592, 1]], [0, [1.4296, 1]], [0, [0.7148, 1]], [0, [0.3574, 1]], [1, [359.572755541907, 1]], [1, [179.7863777709535, 1]], [1, [89.89318888547675, 1]], [1, [44.94659444273837, 1]], [1, [22.473297221369187, 1]], [1, [11.236648610684593, 1]], [1, [5.618324305342297, 1]], [1, [2.8091621526711483, 1]], [1, [1.4045810763355742, 1]], [1, [0.7022905381677871, 1]], [1, [0.35114526908389354, 1]], [2, [176.64, 1]], [2, [88.32, 1]], [2, [44.16, 1]], [2, [22.08, 1]], [2, [11.04, 1]], [2, [5.52, 1]], [2, [2.76, 1]], [2, [1.38, 1]], [2, [0.69, 1]], [2, [0.345, 1]], [3, [36.40750691821674, 1]], [3, [18.20375345910837, 1]], [3, [9.101876729554185, 1]], [3, [4.5509383647770925, 1]], [3, [2.2754691823885462, 1]], [3, [1.1377345911942731, 1]], [3, [0.5688672955971366, 1]], [4, [15.008, 1]], [4, [7.504, 1]], [4, [3.752, 1]], [4, [1.876, 1]], [4, [0.938, 1]]]
  ETB auxbasis for Al  [[0, [7405.568, 1]], [0, [3702.784, 1]], [0, [1851.392, 1]], [0, [925.696, 1]], [0, [462.848, 1]], [0, [231.424, 1]], [0, [115.712, 1]], [0, [57.856, 1]], [0, [28.928, 1]], [0, [14.464, 1]], [0, [7.232, 1]], [0, [3.616, 1]], [0, [1.808, 1]], [0, [0.904, 1]], [0, [0.452, 1]], [0, [0.226, 1]], [0, [0.113, 1]], [1, [1836.0916571679966, 1]], [1, [918.0458285839983, 1]], [1, [459.02291429199914, 1]], [1, [229.51145714599957, 1]], [1, [114.75572857299979, 1]], [1, [57.37786428649989, 1]], [1, [28.688932143249946, 1]], [1, [14.344466071624973, 1]], [1, [7.172233035812487, 1]], [1, [3.5861165179062433, 1]], [1, [1.7930582589531217, 1]], [1, [0.8965291294765608, 1]], [1, [0.4482645647382804, 1]], [1, [0.2241322823691402, 1]], [1, [0.1120661411845701, 1]], [2, [455.22944, 1]], [2, [227.61472, 1]], [2, [113.80736, 1]], [2, [56.90368, 1]], [2, [28.45184, 1]], [2, [14.22592, 1]], [2, [7.11296, 1]], [2, [3.55648, 1]], [2, [1.77824, 1]], [2, [0.88912, 1]], [2, [0.44456, 1]], [2, [0.22228, 1]], [2, [0.11114, 1]], [3, [79.69542739003286, 1]], [3, [39.84771369501643, 1]], [3, [19.923856847508215, 1]], [3, [9.961928423754108, 1]], [3, [4.980964211877054, 1]], [3, [2.490482105938527, 1]], [3, [1.2452410529692635, 1]], [3, [0.6226205264846317, 1]], [3, [0.31131026324231587, 1]], [3, [0.15565513162115793, 1]], [4, [13.952, 1]], [4, [6.976, 1]], [4, [3.488, 1]], [4, [1.744, 1]], [4, [0.872, 1]], [4, [0.436, 1]], [4, [0.218, 1]]]
num shells = 218, num cGTOs = 902
Drop 0 primitive fitting functions
make aux basis, num shells = 218, num cGTOs = 902
auxcell.rcut 17.24916021658648
make compensating basis, num shells = 20, num cGTOs = 100
chgcell.rcut 11.482117703874595
    CPU time for 3c2e 221294.60 sec, wall time   7029.73 sec
Num uniq kpts 14
uniq_kpts [[ 0.          0.          0.        ]
 [ 0.          0.         -0.33382718]
 [ 0.         -0.61724846  0.        ]
 [ 0.         -0.61724846  0.33382718]
 [ 0.         -0.61724846 -0.33382718]
 [-0.53455285 -0.30862423  0.        ]
 [-0.53455285 -0.30862423  0.33382718]
 [-0.53455285  0.30862423  0.        ]
 [-0.53455285  0.30862423  0.33382718]
 [-0.53455285 -0.30862423 -0.33382718]
 [-0.53455285  0.30862423 -0.33382718]
 [-0.53455285 -0.92587269  0.        ]
 [-0.53455285 -0.92587269  0.33382718]
 [-0.53455285 -0.92587269 -0.33382718]]
max_memory 698126.497792 (MB)  blocksize 17418325
Cholesky decomposition for j2c at kpt 0
Symmetry pattern (k - [0. 0. 0.])*a= 2n pi
    make_kpt for uniq_kptji_ids [0]
kpt = [0. 0. 0.]
adapted_ji_idx = [ 0  2  5  9 14 20 27 35]
memory = 1641.713664
int3c2e [1/1], AO [0:60], ncol = 20910
Symmetry pattern (k + [0. 0. 0.])*a= 2n pi
    make_kpt for [0]
Cholesky decomposition for j2c at kpt 1
Symmetry pattern (k - [ 0.          0.         -0.33382718])*a= 2n pi
    make_kpt for uniq_kptji_ids [1]
kpt = [ 0.          0.         -0.33382718]
adapted_ji_idx = [ 1  8 19 34]
memory = 1697.869824
int3c2e [1/1], AO [0:60], ncol = 41616
Symmetry pattern (k + [ 0.          0.         -0.33382718])*a= 2n pi
    make_kpt for [1]
Cholesky decomposition for j2c at kpt 2
DF metric linear dependency for kpt 2
cond = -5.382e+16, drop 48 bfns
Symmetry pattern (k - [ 0.         -0.61724846  0.        ])*a= 2n pi
    make_kpt for uniq_kptji_ids [2]
kpt = [ 0.         -0.61724846  0.        ]
adapted_ji_idx = [ 3  7 25 33]
memory = 1753.821184
int3c2e [1/1], AO [0:60], ncol = 41616
Symmetry pattern (k + [ 0.         -0.61724846  0.        ])*a= 2n pi
    make_kpt for [2]
Cholesky decomposition for j2c at kpt 3
Symmetry pattern (k - [ 0.         -0.61724846  0.33382718])*a= 2n pi
    make_kpt for uniq_kptji_ids [3 4]
kpt = [ 0.         -0.61724846  0.33382718]
adapted_ji_idx = [ 4 26]
memory = 1752.522752
int3c2e [1/1], AO [0:60], ncol = 41616
kpt = [ 0.         -0.61724846 -0.33382718]
adapted_ji_idx = [ 6 32]
memory = 2247.819264
int3c2e [1/1], AO [0:60], ncol = 41616
Symmetry pattern (k + [ 0.         -0.61724846  0.33382718])*a= 2n pi
    make_kpt for [3 4]
Cholesky decomposition for j2c at kpt 5
DF metric linear dependency for kpt 5
cond = 8.621e+17, drop 48 bfns
Symmetry pattern (k - [-0.53455285 -0.30862423  0.        ])*a= 2n pi
    make_kpt for uniq_kptji_ids [5]
kpt = [-0.53455285 -0.30862423  0.        ]
adapted_ji_idx = [10 16 23 31]
memory = 2306.002944
int3c2e [1/1], AO [0:60], ncol = 41616
Symmetry pattern (k + [-0.53455285 -0.30862423  0.        ])*a= 2n pi
    make_kpt for [5]
Cholesky decomposition for j2c at kpt 6
Symmetry pattern (k - [-0.53455285 -0.30862423  0.33382718])*a= 2n pi
    make_kpt for uniq_kptji_ids [6 9]
kpt = [-0.53455285 -0.30862423  0.33382718]
adapted_ji_idx = [11 24]
memory = 2278.699008
int3c2e [1/1], AO [0:60], ncol = 41616
kpt = [-0.53455285 -0.30862423 -0.33382718]
adapted_ji_idx = [15 30]
memory = 2280.566784
int3c2e [1/1], AO [0:60], ncol = 41616
Symmetry pattern (k + [-0.53455285 -0.30862423  0.33382718])*a= 2n pi
    make_kpt for [6 9]
Cholesky decomposition for j2c at kpt 7
Symmetry pattern (k - [-0.53455285  0.30862423  0.        ])*a= 2n pi
    make_kpt for uniq_kptji_ids [ 7 11]
kpt = [-0.53455285  0.30862423  0.        ]
adapted_ji_idx = [12 18]
memory = 2280.443904
int3c2e [1/1], AO [0:60], ncol = 41616
kpt = [-0.53455285 -0.92587269  0.        ]
adapted_ji_idx = [21 29]
memory = 2279.64928
int3c2e [1/1], AO [0:60], ncol = 41616
Symmetry pattern (k + [-0.53455285  0.30862423  0.        ])*a= 2n pi
    make_kpt for [ 7 11]
Cholesky decomposition for j2c at kpt 8
Symmetry pattern (k - [-0.53455285  0.30862423  0.33382718])*a= 2n pi
    make_kpt for uniq_kptji_ids [ 8 10 12 13]
kpt = [-0.53455285  0.30862423  0.33382718]
adapted_ji_idx = [13]
memory = 2280.914944
int3c2e [1/1], AO [0:60], ncol = 41616
kpt = [-0.53455285  0.30862423 -0.33382718]
adapted_ji_idx = [17]
memory = 2282.06592
int3c2e [1/1], AO [0:60], ncol = 41616
kpt = [-0.53455285 -0.92587269  0.33382718]
adapted_ji_idx = [22]
memory = 2282.364928
int3c2e [1/1], AO [0:60], ncol = 41616
kpt = [-0.53455285 -0.92587269 -0.33382718]
adapted_ji_idx = [28]
memory = 2284.036096
int3c2e [1/1], AO [0:60], ncol = 41616
Symmetry pattern (k + [-0.53455285  0.30862423  0.33382718])*a= 2n pi
    make_kpt for [ 8 10 12 13]
    CPU time for j3c 228646.21 sec, wall time   7369.67 sec
    CPU time for Init get_k_kpts 228647.22 sec, wall time   7369.70 sec
    CPU time for get_k_kpts: make_kpt ki>=kj (0,*)     21.69 sec, wall time      0.76 sec
    CPU time for get_k_kpts: make_kpt ki>=kj (1,*)     59.24 sec, wall time      1.92 sec
    CPU time for get_k_kpts: make_kpt ki>=kj (2,*)     88.21 sec, wall time      2.88 sec
    CPU time for get_k_kpts: make_kpt ki>=kj (3,*)    114.37 sec, wall time      3.76 sec
    CPU time for get_k_kpts: make_kpt ki>=kj (4,*)    141.98 sec, wall time      4.64 sec
    CPU time for get_k_kpts: make_kpt ki>=kj (5,*)    169.31 sec, wall time      5.58 sec
    CPU time for get_k_kpts: make_kpt ki>=kj (6,*)    197.96 sec, wall time      6.50 sec
    CPU time for get_k_kpts: make_kpt ki>=kj (7,*)    230.93 sec, wall time      7.80 sec
Monkhorst pack size [2 2 2] ew_eta 1.3059867597572923 ew_cut 5.384097344598738
Ewald components = 2.1452953489755e-105, -0.737233080691535, 0.64037152459719
    CPU time for get_j pass 1     98.47 sec, wall time      3.25 sec
    CPU time for get_j pass 2      6.43 sec, wall time      2.29 sec
    CPU time for vj and vk 229780.23 sec, wall time   7409.50 sec
Ewald components = 1.30435514859409e-35, -627.49757153652, 488.979720419325
E1 = (-569.4215369080108-2.6981203553675816e-14j)  E_coul = (112.47423944309833+3.030729882413888e-16j)
init E= -595.465148582108
cond(S) = [1.82365242e+08 2.27758959e+08 8.35826169e+08 7.95233745e+07
 8.35826135e+08 7.95233752e+07 8.35826180e+08 7.95233746e+07]
    CPU time for initialize scf 232807.14 sec, wall time   7505.51 sec
HOMO = 0.292228432319  LUMO = 0.422971838097
     k-point                  mo_energy
   0 ( 0.000  0.000  0.000)   [-57.77593567 -57.77586325 -15.05377655 -15.05049424  -4.28460351
  -4.26594727  -2.56281021  -2.5578247   -2.55777041  -2.55727553
  -2.55721328  -2.55688082  -1.46241542  -0.74739541  -0.18555985
   0.2515724    0.25170779   0.28590592   0.2861214    0.29222843] [  0.42297184   0.65906748   0.86938749   0.95599142   0.95616213
   1.03513279   1.04151308   1.04152663   1.09942795   1.0995158
   1.10680716   1.20882744   1.20885945   1.28601497   1.41941377
   1.45160965   1.45162685   1.49702441   1.62544264   1.62544857
   1.70642837   1.77119679   1.77125821   1.81042483   1.89149012
   1.89149253   1.99769506   2.00711727   2.00712116   2.07585621
   2.07823942   2.0782498    2.15277619   2.22077554   2.32517465
   2.32518213   2.43010779   2.43011793   2.47204137   2.61931023
   2.6438644    2.68528628   2.68530245   2.73075178   2.73076096
   2.77964427   2.77968001   2.79741056   2.81710297   2.81711832
   3.01978152   3.03034809   3.03037098   3.08254193   3.08258663
   3.08450951   3.11794572   3.11799485   3.1440089    3.20771452
   3.20774333   3.23735341   3.37132964   3.37136546   3.41379666
   3.4138115    3.41543084   3.48106725   4.03945431   4.15091682
   4.17748866   4.17750648   4.39483932   4.64876761   4.68922734
   4.68924689   4.86669879   4.87200247   4.87203094   4.93392181
   5.03238049   5.03242179   5.05086997   5.11951339   5.11955132
   5.21644169   5.25752801   5.31783211   5.31784511   5.37729893
   5.46855145   5.46855973   5.53002547   5.53006638   5.86236637
   6.0597658    6.19590259   6.19590713   6.27459361   6.27460422
   6.30070762   6.30072609   6.40887619   6.40888988   6.43014364
   6.43585297   6.47738613   6.47738888   6.58551528   6.58553879
   6.83548013   6.83549581   6.95336879   6.98091875   7.18584741
   7.19909034   7.19909568   7.28668438   9.42589027  10.04953389
  11.23271379  11.27523394  11.27524955  11.75572924  11.75574344
  11.83248548  19.83156491  19.83157059  19.8375864   19.83969013
  19.84687969  19.84689959  19.84737934  19.84785323  19.847866
  19.86717528  19.86717744  19.87501238  19.88073994  19.88136941
  22.07430849  22.23777946  22.23778336  22.25675259  22.25675741
  22.43959621  23.72122224  23.89088827  23.8908946   23.91181143
  23.91181178  24.03211193  24.05080387  24.05081731  24.07767523
  24.08347721  24.08349559  24.5493379   37.43870783  37.50214254
  37.50215304  37.98740817  38.09790089  38.09791169  39.86520028
  39.86520462  39.87779797  39.87780227  39.95065773  39.95066684
  39.95174491  39.962575    39.96258521  39.97976121  47.77584814
  48.83466567 110.07949238 110.19780121 110.19780301 110.21666341
 110.21666516 110.31983753 117.97007514 119.22028222]
   1 ( 0.000  0.000  0.500)   [-5.77759188e+01 -5.77758943e+01 -1.50522228e+01 -1.50520443e+01
 -4.27477078e+00 -4.27469055e+00 -2.56093787e+00 -2.56089934e+00
 -2.55755015e+00 -2.55754066e+00 -2.55749599e+00 -2.55747785e+00
 -1.14825087e+00 -1.14694476e+00  4.65984965e-02  4.72368403e-02
  2.68535690e-01  2.68572148e-01  2.68752183e-01  2.68769681e-01] [  0.60439411   0.6045398    0.88933939   0.88973772   0.9680935
   0.96816901   0.96822159   0.96828829   1.23017334   1.23021989
   1.24228936   1.24234636   1.24235421   1.24236453   1.40374729
   1.40376641   1.40377898   1.40378285   1.51477539   1.51479358
   1.71667879   1.71671448   1.89901786   1.8990447    1.89909177
   1.89909688   1.89988798   1.8999144    2.17255346   2.17257995
   2.17259228   2.17262149   2.35146011   2.3514678    2.35150126
   2.35151112   2.40788568   2.40790523   2.46869713   2.46871525
   2.46871907   2.468741     2.53533701   2.53538707   2.79485546
   2.79492505   2.85781591   2.85784082   2.89076536   2.89076849
   2.89080799   2.89081387   2.94934092   2.94936889   2.94938243
   2.94939357   3.16896942   3.16901056   3.24586659   3.24587234
   3.24590493   3.24590857   3.42020549   3.42024203   3.4202487
   3.42027241   3.44007039   3.44011718   3.98860158   3.98861517
   4.45093358   4.45095834   4.46716136   4.46717017   4.46717379
   4.46718069   4.85110734   4.85113915   5.07254006   5.07258031
   5.07260784   5.07265143   5.201728     5.20175      5.20180449
   5.20184446   5.27075461   5.27080797   5.30730565   5.30738803
   5.6328671    5.6328846    5.63288912   5.63291008   6.11149931
   6.11155321   6.2007592    6.20076026   6.20077332   6.2007765
   6.3858006    6.38581246   6.38583421   6.38584902   6.41176021
   6.41185732   6.54613517   6.54614679   6.54620723   6.54622013
   6.77155459   6.77159956   6.98006281   6.98007327   6.98009705
   6.9801067    7.15177713   7.15181877  10.0921902   10.09220525
  11.2277242   11.2277468   11.64868883  11.6487054   11.64871169
  11.64873127  19.83640488  19.83641367  19.8364167   19.83642404
  19.84307048  19.84309624  19.85790011  19.85790489  19.85790636
  19.85791355  19.8613784   19.86138708  19.88366377  19.88368593
  22.21562738  22.21581214  22.3129606   22.31296822  22.31315443
  22.31315599  23.85748997  23.85749319  23.85750372  23.85750866
  23.98690805  23.98695915  24.05954457  24.05955902  24.05956075
  24.05957592  24.24991399  24.25003706  37.35182738  37.3518384
  38.01625087  38.01625802  38.01626202  38.01626648  39.87628888
  39.87629261  39.8764553   39.8764572   39.93201059  39.93220807
  39.94606118  39.94606459  39.94622234  39.94623577  48.92238075
  48.92238115 110.21036916 110.21058437 110.24794812 110.24795482
 110.24816059 110.24816373 118.53373641 118.5339477 ]
   2 ( 0.000  0.500  0.000)   [-5.77758667e+01 -5.77758415e+01 -1.50500855e+01 -1.50495441e+01
 -4.26527422e+00 -4.26441252e+00 -2.56173014e+00 -2.56060905e+00
 -2.55912917e+00 -2.55861742e+00 -2.55772864e+00 -2.55771489e+00
 -7.50094390e-01 -6.35775126e-01 -1.04609950e-01  6.67752515e-03
  8.87086163e-02  1.82169411e-01  1.99072803e-01  2.59468260e-01] [  0.68605751   0.68951532   0.74454546   0.86754738   0.94382065
   0.95453107   1.00755779   1.12947505   1.13465459   1.27342628
   1.27522849   1.30883342   1.44123221   1.4563835    1.49021461
   1.49218517   1.54025057   1.56539031   1.60986734   1.6318504
   1.70869295   1.74597043   1.78214923   1.7841909    1.86499667
   1.90372422   1.92423902   1.93880987   1.96857734   1.99144994
   2.14985376   2.17504941   2.18718147   2.1995267    2.24856907
   2.28994661   2.36764432   2.37958524   2.38220057   2.3890948
   2.43089491   2.4486758    2.47834729   2.48702354   2.65257538
   2.72523362   2.73433878   2.75801115   2.80172103   2.83455205
   2.89095963   2.9308061    2.93638479   2.95283785   2.96199142
   3.04037656   3.04813124   3.06446918   3.21389562   3.27713947
   3.32293744   3.33845231   3.38656216   3.45323761   3.68216676
   3.8968904    3.93150956   3.9571046    4.28769909   4.32588645
   4.38093522   4.42862182   4.4899339    4.6455919    4.66832191
   4.68529864   4.713279     4.80516675   4.82366147   4.92769658
   4.98278428   5.09604993   5.15036129   5.22140827   5.26023698
   5.30139442   5.32136904   5.32348408   5.33118054   5.38765408
   5.51478457   5.5202377    5.58226892   5.64796874   6.03297853
   6.03815384   6.05899456   6.20168731   6.23241062   6.25943681
   6.32796629   6.34228756   6.39306922   6.41180527   6.44012013
   6.49191809   6.57922196   6.63502006   6.65881104   6.78106602
   6.9028007    6.95040095   7.17627829   7.25483815   7.25764598
   7.3389205    7.65358235   7.74725465   9.94691551  10.27018615
  11.32342031  11.42329384  11.64455126  11.87005141  11.88389988
  12.0370924   19.8191304   19.82642072  19.82678319  19.83058953
  19.83212729  19.83601131  19.84485524  19.84907241  19.85028222
  19.85050508  19.85419554  19.86308853  19.86505324  19.8686251
  22.07169091  22.1555737   22.23575328  22.30885445  22.38072553
  22.43936322  23.58521849  23.79852667  23.88575558  23.91352816
  23.92662345  23.93956144  23.97590481  24.03002833  24.05177174
  24.17347328  24.19931218  24.90827448  37.49611384  37.65550523
  37.8396712   38.11913687  38.30500352  38.43151154  39.83289766
  39.86194805  39.87399835  39.87651894  39.93209015  39.9461665
  40.0411249   40.04646596  40.05482796  40.0734806   48.73900204
  48.79239797 110.06389372 110.13718375 110.19600786 110.26616553
 110.30328694 110.32886595 117.80090057 119.79725684]
   3 ( 0.000  0.500  0.500)   [-57.77586464 -57.77583981 -15.04990143 -15.04970853  -4.26460529
  -4.26460223  -2.56171647  -2.56169657  -2.5581755   -2.5581449
  -2.557939    -2.55792015  -0.67962354  -0.67881601  -0.11413034
  -0.11321215   0.21718962   0.21733179   0.21813829   0.21840836] [  0.64685443   0.64714865   0.85172969   0.85194425   0.93044885
   0.93065463   1.03974284   1.03990214   1.16927957   1.16940623
   1.35211752   1.35213509   1.4421077    1.44212526   1.49377325
   1.49378051   1.52635127   1.52639061   1.60919404   1.60925344
   1.78728241   1.7873468    1.86774003   1.86779397   1.93792956
   1.93794119   1.94843289   1.94846777   1.97018359   1.9702152
   2.03847234   2.03848649   2.08720193   2.08721325   2.25153599
   2.2515664    2.30800304   2.30804519   2.35306458   2.35308888
   2.45583781   2.45584614   2.5391994    2.53922443   2.71809567
   2.71817349   2.77989141   2.77994103   2.83454952   2.8345734
   2.85396751   2.85397726   2.95643481   2.95648247   3.01021161
   3.0102553    3.06157225   3.06159652   3.16076529   3.16079655
   3.28838485   3.28841951   3.44186488   3.44189018   3.68412837
   3.684149     3.77535026   3.7753993    4.22909148   4.22910009
   4.36172515   4.36175767   4.63781689   4.63787253   4.64290112
   4.64295043   4.75794643   4.75799296   4.89680948   4.89686274
   5.10186785   5.10193078   5.14395205   5.14402558   5.23740863
   5.23745828   5.31616539   5.3162396    5.39792745   5.39804408
   5.52353602   5.52359324   5.53862735   5.53872046   5.96702966
   5.96710617   6.18245267   6.18247135   6.29320186   6.29328249
   6.42134681   6.42138785   6.46212028   6.46215043   6.52862169
   6.52869305   6.56290097   6.56292416   6.75371351   6.75372256
   6.86973423   6.86976137   7.08621507   7.08627064   7.12599017
   7.12604529   7.56429226   7.5643664   10.17570365  10.1757327
  11.4542069   11.45422839  11.739426    11.73943972  11.80152222
  11.80154316  19.82506443  19.82507634  19.82578149  19.82578692
  19.83474804  19.83476296  19.84588743  19.84590385  19.84727084
  19.84727869  19.86397444  19.86399223  19.86819663  19.86820022
  22.0869822   22.0871725   22.13474065  22.13479362  22.35577118
  22.35582891  23.7970347   23.79706689  23.85294702  23.85295821
  23.9239498   23.92396588  24.01141513  24.01142847  24.07352497
  24.07352789  24.46374801  24.46390257  37.64042489  37.64043699
  37.85922689  37.85923213  38.13659085  38.13659619  39.85555896
  39.85574283  39.88959644  39.88974995  39.94028465  39.94047088
  40.05746568  40.05762472  40.05780119  40.05800585  48.72992147
  48.72992177 110.07970639 110.07991229 110.12085075 110.12089284
 110.28592611 110.2859661  118.99545564 118.99566658]
   4 ( 0.500  0.000  0.000)   [-5.77758659e+01 -5.77758400e+01 -1.50501045e+01 -1.50495489e+01
 -4.26513989e+00 -4.26444832e+00 -2.56170445e+00 -2.56059493e+00
 -2.55911399e+00 -2.55867732e+00 -2.55778024e+00 -2.55772430e+00
 -7.50801708e-01 -6.34807672e-01 -1.05574329e-01  7.05181001e-03
  8.86629062e-02  1.81896665e-01  1.99041240e-01  2.59220906e-01] [  0.68583218   0.68977356   0.74424117   0.86794625   0.94394267
   0.95447946   1.0077773    1.12960638   1.13470443   1.27347985
   1.27511706   1.30888681   1.44125009   1.45636676   1.49025178
   1.49216053   1.54021419   1.56536937   1.60985667   1.63183596
   1.70871626   1.74598847   1.78216252   1.78420159   1.86500742
   1.90371284   1.92425682   1.93880131   1.96857102   1.99146166
   2.14988334   2.17506363   2.18719586   2.19953002   2.24858141
   2.28992272   2.36761523   2.37955571   2.38219638   2.38905461
   2.4308745    2.44867361   2.47831983   2.48703424   2.65256555
   2.72521111   2.73434022   2.75801484   2.80173756   2.83457203
   2.89094711   2.93080323   2.93636289   2.95283127   2.9620062
   3.04037628   3.04813607   3.06446257   3.21385056   3.2771265
   3.32295584   3.33845448   3.38653164   3.45325416   3.68215729
   3.89689683   3.93148398   3.95707802   4.28770346   4.32590398
   4.38092337   4.42861606   4.48993065   4.64558355   4.66829327
   4.68534191   4.71328716   4.805199     4.82368111   4.92770889
   4.98280282   5.09605722   5.15036582   5.22142032   5.2601968
   5.30139154   5.32137568   5.32350366   5.33119981   5.38759856
   5.51474676   5.52024745   5.5822192    5.64792437   6.03295626
   6.03813319   6.05899927   6.20170247   6.2324093    6.25944741
   6.32796457   6.34230401   6.39308552   6.4117813    6.44011911
   6.49191235   6.57922254   6.63503133   6.65881701   6.78108016
   6.90280834   6.95040307   7.17625639   7.25482921   7.2576439
   7.33894241   7.65356862   7.74726293   9.94691718  10.27016451
  11.32342039  11.42330248  11.64454209  11.87006447  11.88391149
  12.03708914  19.81912837  19.82641181  19.82677334  19.83059413
  19.83212722  19.83600483  19.84487048  19.84908464  19.85029329
  19.85049352  19.85418649  19.86309446  19.86505721  19.86861953
  22.07168778  22.15557658  22.23575662  22.30885556  22.38071995
  22.43936277  23.58521515  23.79852364  23.88576037  23.91352774
  23.92662407  23.93955403  23.97591345  24.03004473  24.05178127
  24.17346117  24.19929996  24.90827752  37.49611665  37.65549707
  37.83967632  38.11914314  38.30499603  38.43151255  39.83290091
  39.86195037  39.87400414  39.87651779  39.93208561  39.94616202
  40.04112207  40.04646646  40.05483304  40.07347534  48.7390022
  48.79239753 110.06389239 110.13718354 110.19600766 110.26616687
 110.3032853  110.32886748 117.80090074 119.7972568 ]
   5 ( 0.500  0.000  0.500)   [-57.77586354 -57.77583805 -15.04991287 -15.04971839  -4.26453949
  -4.26451432  -2.56170419  -2.56166998  -2.55822731  -2.55820981
  -2.55791535  -2.5579029   -0.67925251  -0.67895315  -0.1135343
  -0.11312683   0.21666973   0.21700251   0.21796356   0.21815774] [  0.64718857   0.64733802   0.85186716   0.85195472   0.93048975
   0.93053524   1.03980369   1.03995597   1.16937602   1.16946312
   1.35212336   1.35215769   1.44205091   1.44212888   1.49376881
   1.49377582   1.52635257   1.52639619   1.60923684   1.60928014
   1.78731795   1.7873645    1.86773573   1.86780402   1.93792182
   1.93794402   1.94844008   1.94845765   1.97021011   1.97021509
   2.03848662   2.03850708   2.08716518   2.08719648   2.25152774
   2.25154951   2.30800151   2.30804921   2.35304887   2.35307929
   2.45582045   2.45582498   2.53921534   2.53922826   2.71811033
   2.71817829   2.77987263   2.77990501   2.83456208   2.83457923
   2.85395883   2.85396978   2.95642898   2.95646424   3.01021613
   3.01025642   3.0615611    3.06159355   3.16078432   3.16079398
   3.28836231   3.28839324   3.44184187   3.4418704    3.68411372
   3.68413564   3.7753452    3.77538016   4.22908175   4.22908509
   4.36172255   4.36176088   4.63782637   4.63787518   4.64291352
   4.64295938   4.75793336   4.7579839    4.89683111   4.89688408
   5.1018892    5.10195467   5.1439637    5.14403697   5.2373951
   5.23745422   5.31615071   5.31623267   5.39791389   5.39802432
   5.52353904   5.52359398   5.53859456   5.53868529   5.96702322
   5.96709534   6.18245912   6.18248263   6.29318957   6.29326918
   6.42135386   6.42139088   6.46212061   6.46214526   6.52862961
   6.52871866   6.56291449   6.56294511   6.75371744   6.75373001
   6.86972225   6.86974974   7.08622351   7.08627672   7.12598441
   7.12603836   7.56428879   7.5643589   10.17568618  10.17570879
  11.45421399  11.45422818  11.7394334   11.73944054  11.80153128
  11.80155538  19.82505326  19.82506135  19.82578454  19.82578984
  19.8347513   19.83476822  19.84587877  19.84589098  19.84728051
  19.84728617  19.86397534  19.86399621  19.8682014   19.86820705
  22.08697624  22.08717108  22.13474163  22.13479872  22.35577169
  22.35582354  23.79702977  23.79706122  23.85295051  23.85296238
  23.92394251  23.92395557  24.01142605  24.01144004  24.073524
  24.07352865  24.4637476   24.46390225  37.64043422  37.64043503
  37.85922854  37.85923726  38.13658197  38.13658997  39.85556341
  39.85574767  39.8895944   39.8897551   39.94028104  39.9404675
  40.05746703  40.05762732  40.0578018   40.05799503  48.72992179
  48.72992223 110.07970133 110.07991457 110.1208511  110.12089435
 110.28592725 110.28596513 118.99545557 118.99566638]
   6 ( 0.500  0.500  0.000)   [-5.77758659e+01 -5.77758400e+01 -1.50501045e+01 -1.50495489e+01
 -4.26513989e+00 -4.26444832e+00 -2.56170445e+00 -2.56059493e+00
 -2.55911398e+00 -2.55867731e+00 -2.55778023e+00 -2.55772430e+00
 -7.50801706e-01 -6.34807667e-01 -1.05574333e-01  7.05180233e-03
  8.86629362e-02  1.81896662e-01  1.99041247e-01  2.59220916e-01] [  0.68583221   0.68977367   0.7442412    0.86794629   0.94394331
   0.95447969   1.00777726   1.12960631   1.13470419   1.27347963
   1.27511697   1.30888744   1.44125067   1.45636868   1.49025061
   1.49215945   1.54021563   1.56536978   1.6098559    1.63183648
   1.70871446   1.74598481   1.78216981   1.78419258   1.8650061
   1.90370977   1.92425949   1.93879984   1.96857516   1.99146544
   2.14988085   2.17506775   2.18719      2.19953129   2.24858182
   2.28992303   2.36762076   2.37955629   2.38218205   2.38905875
   2.43087313   2.44866102   2.47832489   2.48703442   2.65259397
   2.72521721   2.73433456   2.75800691   2.80172231   2.83458195
   2.89094922   2.93080212   2.93638482   2.95282462   2.96201058
   3.04038352   3.04814854   3.06445744   3.21384468   3.27713232
   3.32295981   3.33845849   3.38652641   3.45325184   3.68216575
   3.89690255   3.93144837   3.95704756   4.28770149   4.32590434
   4.3809252    4.42861804   4.48993178   4.64557644   4.66829572
   4.68534346   4.71328052   4.80520193   4.82368064   4.92770993
   4.98280241   5.09606506   5.15036244   5.22142708   5.2602022
   5.30139513   5.32137378   5.32350648   5.33119582   5.38761559
   5.5147414    5.52025085   5.58221408   5.64792331   6.0329596
   6.03813171   6.05899964   6.20170702   6.23241126   6.25944913
   6.3279682    6.34230226   6.39308251   6.41177371   6.4401215
   6.49191354   6.57922244   6.63503504   6.65881558   6.78108003
   6.90281404   6.95040348   7.17623772   7.25483145   7.25764509
   7.33893697   7.6535654    7.74725382   9.94692234  10.27016776
  11.32342005  11.42330333  11.64454359  11.8700665   11.88391293
  12.03709788  19.81912843  19.82641199  19.82677331  19.83059385
  19.83212722  19.83600493  19.84487043  19.8490848   19.85029308
  19.85049342  19.85418663  19.8630945   19.86505715  19.86861949
  22.0716879   22.15557688  22.23575677  22.3088557   22.38071988
  22.43936332  23.5852147   23.79852405  23.88576     23.91352818
  23.92662375  23.93955454  23.97591382  24.03004455  24.05178105
  24.17346089  24.19930012  24.90827708  37.49611688  37.65549627
  37.83967786  38.11914471  38.30499541  38.43151457  39.83290073
  39.86195042  39.87400406  39.87651776  39.93208562  39.94616213
  40.04112191  40.04646605  40.05483336  40.07347541  48.73900281
  48.79240007 110.06389244 110.13718359 110.19600767 110.26616684
 110.30328533 110.32886753 117.80090042 119.79725673]
   7 ( 0.500  0.500  0.500)   [-57.77586354 -57.77583805 -15.04991287 -15.04971839  -4.26453949
  -4.26451432  -2.56170419  -2.56166998  -2.55822731  -2.55820981
  -2.55791534  -2.55790289  -0.6792525   -0.67895315  -0.1135343
  -0.11312684   0.21666976   0.21700251   0.21796356   0.21815775] [  0.64718867   0.64733813   0.85186712   0.85195473   0.93048978
   0.93053528   1.03980383   1.03995632   1.16937615   1.16946325
   1.35212385   1.35215797   1.44205035   1.44212824   1.493769
   1.49377538   1.52635169   1.52639604   1.60923642   1.6092785
   1.78731913   1.78736529   1.86773249   1.86780455   1.93793193
   1.93795046   1.94843453   1.9484532    1.97021534   1.97021973
   2.03848589   2.03850757   2.0871652    2.08719678   2.25152659
   2.25154758   2.30800438   2.30805291   2.35304878   2.35307351
   2.45581633   2.45582766   2.53921517   2.53922949   2.71812003
   2.71818376   2.77985665   2.77989308   2.83455708   2.83457521
   2.85394087   2.85395632   2.95643523   2.95646886   3.0102252
   3.010261     3.06156962   3.06160313   3.16078398   3.16079491
   3.28837192   3.28840656   3.44186393   3.4418852    3.68410252
   3.6841191    3.77532238   3.7753815    4.22908331   4.22908744
   4.36172255   4.36176443   4.63783002   4.63788533   4.64291602
   4.64296002   4.75793053   4.75798252   4.89683527   4.89688649
   5.10189345   5.10195605   5.14396322   5.14403516   5.23740246
   5.23745826   5.3161539    5.31623239   5.39791396   5.39802534
   5.52354392   5.52359891   5.53859299   5.53867886   5.967021
   5.96709377   6.1824612    6.18248324   6.29319163   6.29327233
   6.42135311   6.42139156   6.46212546   6.46214944   6.52863415
   6.52871754   6.56291281   6.56294424   6.75372454   6.75373282
   6.86972434   6.86975285   7.08622399   7.08627912   7.12598089
   7.12603419   7.56427263   7.56435371  10.17568822  10.17570874
  11.4542158   11.45422965  11.73943333  11.73944278  11.80153196
  11.80155798  19.82505321  19.82506127  19.82578447  19.8257898
  19.83475149  19.8347684   19.84587872  19.84589102  19.84728038
  19.84728594  19.86397529  19.86399616  19.86820154  19.86820735
  22.08697631  22.0871712   22.13474162  22.13479856  22.35577297
  22.35582428  23.79703009  23.79706128  23.85295028  23.85296244
  23.92394288  23.92395667  24.01142597  24.01144007  24.07352387
  24.07352864  24.46374786  24.46390226  37.64043539  37.64043615
  37.85922898  37.85923817  38.13658114  38.13658941  39.85556322
  39.85574754  39.8895945   39.88975521  39.94028112  39.94046744
  40.05746723  40.05762736  40.05780135  40.0579949   48.72992304
  48.72992315 110.07970137 110.07991462 110.1208511  110.12089432
 110.28592739 110.28596522 118.99545572 118.99566646]
    CPU time for get_k_kpts: make_kpt ki>=kj (0,*)     20.75 sec, wall time      0.69 sec
    CPU time for get_k_kpts: make_kpt ki>=kj (1,*)     55.72 sec, wall time      1.84 sec
    CPU time for get_k_kpts: make_kpt ki>=kj (2,*)     90.04 sec, wall time      2.92 sec
    CPU time for get_k_kpts: make_kpt ki>=kj (3,*)    117.89 sec, wall time      3.86 sec
    CPU time for get_k_kpts: make_kpt ki>=kj (4,*)    136.56 sec, wall time      4.55 sec
    CPU time for get_k_kpts: make_kpt ki>=kj (5,*)    170.55 sec, wall time      5.66 sec
    CPU time for get_k_kpts: make_kpt ki>=kj (6,*)    200.67 sec, wall time      6.66 sec
    CPU time for get_k_kpts: make_kpt ki>=kj (7,*)    222.94 sec, wall time      7.40 sec
Monkhorst pack size [2 2 2] ew_eta 1.3059867597572923 ew_cut 5.384097344598738
Ewald components = 2.1452953489755e-105, -0.737233080691535, 0.64037152459719
    CPU time for get_j pass 1     96.84 sec, wall time      3.25 sec
    CPU time for get_j pass 2      6.45 sec, wall time      2.29 sec
    CPU time for vj and vk   1121.91 sec, wall time     39.25 sec
Ewald components = 1.30435514859409e-35, -627.49757153652, 488.979720419325
E1 = (-567.8069398969659-2.8212946177383027e-14j)  E_coul = (113.25912766449221+2.409077236157692e-15j)
cycle= 1 E= -593.065663349669  delta_E=  2.4  |g|= 1.38  |ddm|= 1.9e+03
    CPU time for cycle= 1   1126.72 sec, wall time     39.83 sec
diis-norm(errvec)=4.92661
diis-c [-24.27145987+0.j   1.        +0.j]
HOMO = 0.218064751128  LUMO = 0.676290615584
     k-point                  mo_energy
   0 ( 0.000  0.000  0.000)   [-57.95987028 -57.95984381 -14.81731703 -14.81671996  -4.34074018
  -4.34066418  -2.65577138  -2.65555911  -2.65555187  -2.65544324
  -2.65543672  -2.65517951  -0.56828269  -0.46557182  -0.09230615
   0.14016518   0.14019518   0.17482371   0.17482884   0.21806475] [  0.67629062   0.78310175   0.95762053   0.95763203   0.98172607
   1.03982786   1.04944645   1.04946554   1.0920494    1.09206482
   1.09804136   1.19420015   1.1942063    1.27835169   1.41768966
   1.47397861   1.47398497   1.51319004   1.64759743   1.6476081
   1.7388456    1.77999129   1.7800066    1.85033873   1.87822373
   1.87822974   1.98156742   2.04124349   2.04124532   2.05535366
   2.10956039   2.10956661   2.14342887   2.21322274   2.33064206
   2.33065798   2.43282789   2.43283383   2.47119738   2.61807804
   2.66052811   2.68062702   2.68064132   2.74837829   2.74837852
   2.78490169   2.78494015   2.79935982   2.79937268   2.84726984
   3.02909165   3.02910356   3.06189339   3.10568437   3.10569172
   3.12129986   3.14511357   3.1451252    3.16780993   3.21257685
   3.21259871   3.23738603   3.39981011   3.39984336   3.41961667
   3.43110873   3.43112589   3.48341713   4.03265893   4.14379849
   4.14380984   4.17173407   4.43434603   4.66283942   4.70058889
   4.70059925   4.97142345   4.97143502   4.98250653   5.01979333
   5.14787272   5.14788086   5.15920875   5.22307797   5.22308917
   5.32944057   5.33585172   5.42967441   5.42967792   5.49711016
   5.57904529   5.57905438   5.63259165   5.63260569   5.96796459
   6.1677544    6.22987812   6.22988203   6.34862174   6.34862549
   6.41476998   6.41477244   6.44875503   6.44876033   6.46212222
   6.46212621   6.48972422   6.50733405   6.65888366   6.65888893
   6.8271624    6.82716815   7.01666523   7.04148359   7.21489058
   7.24268093   7.24268587   7.40843178   9.35532914   9.97819914
  11.14599452  11.18743116  11.18743941  11.66919792  11.66920382
  11.74977507  19.73101014  19.73101124  19.73708407  19.73962772
  19.74630322  19.74630821  19.74733817  19.74735769  19.74736076
  19.7667422   19.76674295  19.77563887  19.78019581  19.78165179
  22.27878877  22.44510511  22.44511039  22.46383541  22.46384119
  22.64977267  23.77872939  23.77872981  23.78923473  23.79491795
  23.79491862  23.93767954  23.93768227  23.97487201  23.97487553
  23.97497673  24.05750152  24.75200992  37.299026    37.36346917
  37.36347156  37.84970706  37.96181991  37.96182207  40.09081831
  40.09081909  40.10142436  40.10142547  40.17578657  40.17609049
  40.17609495  40.1876149   40.18761963  40.20209627  47.64144911
  48.69953129 110.28445539 110.40459875 110.40460156 110.42345015
 110.42345302 110.52460392 118.16790223 119.41787434]
   1 ( 0.000  0.000  0.500)   [-5.79598704e+01 -5.79598440e+01 -1.48173215e+01 -1.48167265e+01
 -4.34071748e+00 -4.34069032e+00 -2.65551311e+00 -2.65550520e+00
 -2.65548847e+00 -2.65548323e+00 -2.65548200e+00 -2.65544771e+00
 -5.26102318e-01 -5.25897667e-01  4.83855701e-02  4.85681231e-02
  1.56917099e-01  1.56933318e-01  1.57140082e-01  1.57151569e-01] [  0.78570525   0.78581728   0.93618525   0.93621335   0.96899163
   0.96900357   0.9690399    0.96905317   1.2346582    1.23468974
   1.24544813   1.24545351   1.24550993   1.24551495   1.40043705
   1.40044062   1.40044713   1.40045795   1.51064929   1.51066849
   1.70845805   1.70849273   1.92905203   1.92909959   1.94489067
   1.94489364   1.94501289   1.94501863   2.1745185    2.17452739
   2.17455494   2.17456441   2.35603859   2.35604432   2.35609946
   2.356106     2.40662934   2.40669907   2.46543279   2.46544514
   2.46545417   2.46546057   2.53441092   2.53445125   2.82548829
   2.82557531   2.86025418   2.86028219   2.87905885   2.87907107
   2.8791085    2.87912374   2.96374839   2.96376627   2.96380934
   2.96381845   3.19462305   3.19469866   3.27425345   3.27427825
   3.27433691   3.27436866   3.44696885   3.44698703   3.44701914
   3.44704077   3.4635032    3.46358251   3.97127563   3.97131167
   4.45816864   4.45817959   4.4581926    4.45820652   4.47899909
   4.47906973   4.95983696   4.95989673   5.18955129   5.18955837
   5.18975064   5.18975743   5.30999192   5.30999927   5.31010993
   5.31011866   5.37177722   5.37192185   5.42677553   5.42702741
   5.719088     5.71909643   5.71911988   5.71912745   6.16206941
   6.16217338   6.21280767   6.21281387   6.21284031   6.2128411
   6.47349461   6.47349571   6.47369189   6.47369761   6.52600764
   6.52620378   6.59798548   6.59798947   6.59819005   6.5981915
   6.85548281   6.85555494   7.00937913   7.00938551   7.00953495
   7.00953822   7.20444897   7.204567    10.02087067  10.02090117
  11.14131029  11.14133126  11.56186852  11.56188112  11.56189129
  11.56189816  19.73586585  19.73586987  19.73588191  19.73588329
  19.7430184   19.74304295  19.75745649  19.75745797  19.75747183
  19.7574736   19.76096694  19.76099619  19.7846278   19.78465171
  22.41754917  22.41803829  22.52140438  22.52141051  22.52193737
  22.52194193  23.74113902  23.74113921  23.74116475  23.7411652
  23.92250061  23.92253526  23.9485525   23.9485571   23.94856893
  23.94857006  24.41670564  24.41715731  37.21313221  37.21315976
  37.87776684  37.87777093  37.87779318  37.87779496  40.10209596
  40.10209608  40.10257901  40.10257981  40.15462304  40.15520101
  40.17111996  40.17112395  40.17160314  40.17160709  48.7869373
  48.78696218 110.41504972 110.41565559 110.45452641 110.45452968
 110.4551365  110.45513887 118.73134618 118.7319423 ]
   2 ( 0.000  0.500  0.000)   [-5.79598704e+01 -5.79598439e+01 -1.48173852e+01 -1.48167900e+01
 -4.34068787e+00 -4.34065153e+00 -2.65601725e+00 -2.65592607e+00
 -2.65574570e+00 -2.65558415e+00 -2.65555654e+00 -2.65535483e+00
 -4.75429701e-01 -4.41518038e-01 -6.71156612e-02 -1.35136682e-03
  3.53345146e-02  8.02209647e-02  1.23048864e-01  1.54424570e-01] [  0.72307806   0.73232896   0.84394099   0.93667207   0.95408041
   1.04389016   1.05114435   1.13543143   1.17834318   1.297281
   1.30146788   1.32202453   1.44367422   1.46296677   1.51122264
   1.51825716   1.53541528   1.56720057   1.61707712   1.63683532
   1.72799471   1.74790011   1.76125266   1.76472505   1.87730963
   1.90184077   1.93566391   1.94794635   1.97434615   1.97977746
   2.12972298   2.17242884   2.19392229   2.21682039   2.25127603
   2.28872183   2.35980065   2.37170922   2.37438933   2.3782716
   2.44949479   2.45139059   2.48571035   2.49483694   2.66012686
   2.73882547   2.77301504   2.77612167   2.80236393   2.86126914
   2.87241565   2.92553828   2.95859584   2.95966694   2.99739315
   3.04601456   3.06565406   3.09116946   3.21002126   3.2780682
   3.34725204   3.36024491   3.40069411   3.49260683   3.72649708
   3.92116161   3.97329245   3.99449685   4.2576013    4.36766013
   4.3956383    4.45426826   4.49793552   4.70382425   4.7322252
   4.75734178   4.77531565   4.90935956   4.93461975   5.01860641
   5.09498353   5.18483438   5.25536501   5.32618932   5.37946259
   5.38554841   5.39575896   5.42122025   5.42595142   5.45689028
   5.59145008   5.6378977    5.70102861   5.72236885   6.08198924
   6.08611106   6.08714506   6.25556221   6.33178429   6.34246984
   6.41249016   6.41964088   6.44896631   6.45249412   6.47260508
   6.52843272   6.59124444   6.62399518   6.68825548   6.87993576
   6.92956599   6.95453817   7.26172849   7.3308691    7.34043795
   7.419476     7.72535001   7.77045239   9.87423924  10.20139028
  11.23577204  11.33454729  11.55843226  11.7853963   11.79972042
  11.95121872  19.71871406  19.72607026  19.72632523  19.73011974
  19.73163744  19.73546769  19.74424053  19.74908803  19.74991883
  19.75010963  19.75392158  19.7628777   19.76475596  19.76859217
  22.28464282  22.36664381  22.44656327  22.5161176   22.58965624
  22.63592254  23.6850949   23.72703879  23.76895265  23.79798474
  23.82249696  23.82932466  23.86439884  23.91460392  23.94353602
  24.08891271  24.12902992  25.10297535  37.3562632   37.51562172
  37.70253264  37.98108744  38.1693333   38.29627138  40.05860139
  40.08705975  40.09737684  40.1019021   40.15754312  40.16875299
  40.26424616  40.27002627  40.28122649  40.29649863  48.6030504
  48.65781598 110.27072451 110.3421988  110.40183541 110.47271473
 110.50999669 110.53459953 117.99877242 119.99425551]
   3 ( 0.000  0.500  0.500)   [-57.95987045 -57.95984398 -14.81738446 -14.81678945  -4.34068442
  -4.34065723  -2.65602318  -2.65600609  -2.65567726  -2.65565266
  -2.65542051  -2.65538927  -0.45745635  -0.45721544  -0.0772461
  -0.07714894   0.11378854   0.11399747   0.14012715   0.14025618] [  0.70537037   0.70540147   0.87547117   0.87550235   1.03565743
   1.03571529   1.05499297   1.05505977   1.20378509   1.20387797
   1.35516789   1.35523024   1.47222201   1.47224356   1.49763977
   1.49772934   1.52756016   1.52764331   1.63292057   1.63296007
   1.80648517   1.80650389   1.85814704   1.85820402   1.93049135
   1.93050584   1.93806835   1.93809818   1.96029446   1.96031604
   2.02372482   2.02377303   2.08094126   2.08097261   2.25344169
   2.25349374   2.33818309   2.33826442   2.35060329   2.35061903
   2.4570222    2.45703827   2.53824583   2.53827727   2.74763769
   2.7477267    2.76429157   2.76430889   2.83776705   2.83777414
   2.85539205   2.85540018   2.98120983   2.98127164   3.04082359
   3.04085281   3.08542327   3.08549027   3.18666811   3.18673536
   3.30359009   3.30360095   3.4643598    3.46439995   3.71271593
   3.7128019    3.79832114   3.79839238   4.21609783   4.2161166
   4.36790267   4.36800156   4.68143521   4.68148187   4.73620352
   4.73637324   4.84675827   4.84699063   4.99484409   4.99491487
   5.19298961   5.19312104   5.24494133   5.24511239   5.34169455
   5.34181762   5.39482433   5.39497865   5.49946944   5.49964795
   5.59415735   5.59425961   5.65494592   5.65517063   5.98972169
   5.98980921   6.24227822   6.24231326   6.3204397    6.32046936
   6.48959338   6.48968157   6.50145519   6.50159245   6.61732976
   6.61748399   6.63267235   6.63280563   6.77200451   6.77205625
   6.91219419   6.91225902   7.16395388   7.1640335    7.20081575
   7.20100993   7.61718701   7.61735062  10.10487623  10.10489956
  11.36854146  11.3685547   11.65654732  11.65657531  11.7158502
  11.71587589  19.72465133  19.72466746  19.72524605  19.72525702
  19.73443134  19.73444955  19.74543513  19.74546013  19.74680398
  19.74681023  19.7639805   19.76400183  19.76809223  19.76810602
  22.29904917  22.29958872  22.34262887  22.34277768  22.56231809
  22.56247786  23.70494043  23.70498919  23.73672389  23.73674608
  23.823752    23.82376591  23.89728974  23.89730677  23.96405782
  23.96407715  24.63615538  24.63662758  37.50185956  37.50187549
  37.72068361  37.7207001   38.00157177  38.00160226  40.08043604
  40.08096921  40.11446582  40.11493132  40.16493405  40.16547207
  40.27971359  40.28017795  40.2815526   40.28212537  48.59425613
  48.59428137 110.28632509 110.28693445 110.32653558 110.32665531
 110.49174442 110.49186602 119.19265557 119.19325321]
   4 ( 0.500  0.000  0.000)   [-5.79598704e+01 -5.79598439e+01 -1.48173852e+01 -1.48167900e+01
 -4.34068787e+00 -4.34065154e+00 -2.65602258e+00 -2.65593130e+00
 -2.65574048e+00 -2.65557946e+00 -2.65555651e+00 -2.65535430e+00
 -4.75420613e-01 -4.41509954e-01 -6.71579442e-02 -1.34332981e-03
  3.53443831e-02  8.02250299e-02  1.23061988e-01  1.54423119e-01] [  0.72303454   0.73232859   0.84393131   0.9366756    0.95406708
   1.04391332   1.05115737   1.1354329    1.17835139   1.29728695
   1.30145818   1.3220306    1.44366835   1.46296147   1.5112332
   1.51826263   1.53541271   1.56719118   1.61707117   1.63684104
   1.72800053   1.7479008    1.76125546   1.76473812   1.87730772
   1.90184287   1.93566233   1.94794762   1.97434404   1.97978513
   2.12972756   2.17243432   2.19393474   2.21681812   2.25127522
   2.28872423   2.35979725   2.37172067   2.37438893   2.37826933
   2.44949003   2.45139551   2.48570385   2.49485605   2.660137
   2.73880118   2.77300988   2.77612773   2.80236557   2.86126243
   2.8724086    2.9255421    2.95857039   2.95967413   2.99739872
   3.04600337   3.06567112   3.09116471   3.21000818   3.27806592
   3.3472534    3.36024352   3.40068195   3.49260367   3.72650049
   3.92116139   3.97326199   3.99448509   4.25759552   4.36766633
   4.39563688   4.45427661   4.49793544   4.70381748   4.7322306
   4.75734098   4.77531584   4.90936174   4.93461856   5.01860825
   5.09498306   5.18483735   5.25536529   5.32617953   5.37945207
   5.38554256   5.39575802   5.42121709   5.42595279   5.45687614
   5.59143005   5.63790291   5.70102285   5.7223609    6.08198702
   6.08611243   6.08714598   6.25556107   6.33178312   6.34247102
   6.41249213   6.41963953   6.44895896   6.45248565   6.4726104
   6.52843345   6.5912463    6.62400018   6.6882607    6.87993276
   6.92956692   6.9545389    7.26171458   7.33086183   7.34043895
   7.41948048   7.72534454   7.77045761   9.87423856  10.20139162
  11.23576599  11.33455442  11.55842918  11.78539191  11.79972204
  11.95120914  19.71871358  19.72606772  19.72632285  19.73012096
  19.73163754  19.73546597  19.74424433  19.74909135  19.74991638
  19.75011268  19.75391915  19.76287916  19.76475692  19.76859038
  22.28463888  22.36664196  22.44656684  22.51611985  22.58965066
  22.63592545  23.68509474  23.72703498  23.76895307  23.79798387
  23.82249729  23.82932387  23.86440018  23.91460661  23.94353747
  24.08890984  24.12902973  25.10297991  37.35626112  37.51562403
  37.70253184  37.98108692  38.16933389  38.2962681   40.05860061
  40.08705778  40.0973749   40.10190164  40.15754468  40.16875452
  40.26424805  40.27002495  40.28122415  40.2965017   48.60305013
  48.65781566 110.27072239 110.34219828 110.4018351  110.47271745
 110.50999435 110.53460204 117.99877256 119.99425545]
   5 ( 0.500  0.000  0.500)   [-57.95987045 -57.95984398 -14.81738446 -14.81678945  -4.34068443
  -4.34065725  -2.65602944  -2.65600967  -2.65567101  -2.6556489
  -2.65542039  -2.65538958  -0.45744567  -0.45720645  -0.0772484
  -0.07715693   0.11379144   0.1139993    0.14011604   0.14023815] [  0.70538475   0.70539908   0.87546522   0.875503     1.03565454
   1.03571206   1.05499317   1.05506535   1.20377327   1.20387123
   1.35517215   1.35522862   1.47222385   1.47224657   1.49763183
   1.49772405   1.52756832   1.52764599   1.63294045   1.63296872
   1.80648619   1.80650884   1.85815461   1.85820293   1.93048677
   1.93050962   1.93807356   1.93809939   1.96030199   1.96032276
   2.02371815   2.02377719   2.08092975   2.08095782   2.25346236
   2.25349402   2.33817135   2.33826431   2.35060203   2.35062313
   2.4570156    2.45704493   2.53824748   2.53827882   2.74764491
   2.74774866   2.76428291   2.76430931   2.83775978   2.83778954
   2.85539014   2.85541259   2.98120287   2.98126954   3.04082544
   3.04084557   3.08540897   3.08547378   3.18666527   3.18673978
   3.30356192   3.30360058   3.46434787   3.4643976    3.71272121
   3.71280162   3.79830703   3.79838035   4.2160971    4.21611417
   4.36789055   4.36800352   4.68143751   4.68147733   4.73620441
   4.73637511   4.84676003   4.84698934   4.99484455   4.99491947
   5.1929969    5.19311735   5.24494812   5.24511277   5.3416869
   5.34181972   5.39482246   5.39497139   5.49947074   5.49964321
   5.59415398   5.59426001   5.65493929   5.65516707   5.98971956
   5.98981174   6.24227893   6.24231643   6.32043704   6.32046847
   6.48958722   6.48968215   6.501457     6.50159135   6.61733322
   6.61748504   6.63267884   6.63280413   6.77199515   6.77205179
   6.91218778   6.91226486   7.16395309   7.16403197   7.20081302
   7.2010135    7.6171759    7.61734839  10.10487593  10.10490114
  11.36854244  11.36855057  11.65653662  11.65656866  11.71585788
  11.71587939  19.72464658  19.72466572  19.72524654  19.72525802
  19.73443213  19.73445074  19.74543142  19.74545873  19.74680678
  19.74681185  19.76398097  19.76400223  19.76809509  19.76810585
  22.29904431  22.29958568  22.34263095  22.34278165  22.56231683
  22.56247798  23.70494017  23.70498857  23.7367238   23.73674658
  23.82374833  23.82376639  23.89729317  23.89730743  23.96405807
  23.96407659  24.63615624  24.63662688  37.50185938  37.50187495
  37.72068059  37.7206989   38.00157468  38.00160321  40.08043482
  40.0809676   40.11446381  40.11493008  40.16493475  40.16547347
  40.27971234  40.28017661  40.281556    40.28212807  48.59425555
  48.59428079 110.28632257 110.28693271 110.32653656 110.32665662
 110.4917455  110.49186671 119.19265538 119.19325298]
   6 ( 0.500  0.500  0.000)   [-5.79598704e+01 -5.79598439e+01 -1.48173852e+01 -1.48167900e+01
 -4.34068787e+00 -4.34065154e+00 -2.65602258e+00 -2.65593131e+00
 -2.65574047e+00 -2.65557945e+00 -2.65555651e+00 -2.65535430e+00
 -4.75420608e-01 -4.41509959e-01 -6.71579553e-02 -1.34333911e-03
  3.53444070e-02  8.02249979e-02  1.23061954e-01  1.54423056e-01] [  0.7230345    0.73232874   0.84393104   0.9366759    0.95406704
   1.04391378   1.05115684   1.13543021   1.17835057   1.29728761
   1.30145762   1.32203193   1.44366825   1.46296768   1.51122797
   1.51825815   1.5354147    1.5671902    1.61706962   1.63684365
   1.72798423   1.74789017   1.76121843   1.76475536   1.87730241
   1.90182969   1.9356578    1.94795096   1.97434696   1.97978669
   2.12972757   2.17243399   2.19393988   2.21680622   2.25127671
   2.28871798   2.35979747   2.37166582   2.37438191   2.37826903
   2.44948138   2.45136668   2.48571973   2.49485336   2.66017734
   2.73880038   2.77297422   2.77609685   2.80234489   2.86126614
   2.87240479   2.92554196   2.95857436   2.9596697    2.99741191
   3.04599481   3.06571417   3.09113752   3.20999616   3.27807145
   3.3472592    3.36024327   3.40067272   3.49259565   3.72652456
   3.92115477   3.97323344   3.99444771   4.25758337   4.36766327
   4.39563921   4.45427734   4.49794414   4.70381232   4.73222554
   4.75734028   4.77531541   4.90936284   4.93461853   5.01861088
   5.09498601   5.18484612   5.2553703    5.32618944   5.37945748
   5.38554415   5.39576021   5.42122789   5.42595113   5.45688564
   5.59144385   5.6378907    5.70101838   5.7223542    6.08198633
   6.08611692   6.08714655   6.25556732   6.33178597   6.34247393
   6.41249519   6.41964531   6.44896387   6.45248201   6.4726198
   6.5284329    6.59124835   6.62401072   6.68825666   6.87993241
   6.92958153   6.95453867   7.26170425   7.33085398   7.34044721
   7.41948714   7.72534046   7.77044518   9.87424602  10.20139413
  11.23576253  11.3345536   11.55843318  11.78540013  11.7997263
  11.95121588  19.71871359  19.72606784  19.72632283  19.73012063
  19.73163757  19.73546611  19.74424423  19.74909154  19.74991619
  19.75011239  19.75391934  19.76287926  19.76475695  19.76859047
  22.28463884  22.36664277  22.44656759  22.51611979  22.58965178
  22.63592618  23.68509507  23.72703527  23.76895306  23.79798509
  23.82249652  23.82932498  23.8644009   23.91460695  23.94353711
  24.08891     24.12902877  25.10298096  37.35626043  37.51562278
  37.70253394  37.98109023  38.16933406  38.29626953  40.05860052
  40.08705785  40.09737486  40.10190154  40.15754457  40.16875454
  40.26424804  40.27002495  40.28122473  40.29650147  48.60305074
  48.65781949 110.27072242 110.3421984  110.40183517 110.47271738
 110.50999454 110.53460213 117.99877232 119.99425563]
   7 ( 0.500  0.500  0.500)   [-57.95987045 -57.95984398 -14.81738446 -14.81678945  -4.34068443
  -4.34065724  -2.65602944  -2.65600967  -2.65567101  -2.6556489
  -2.65542039  -2.65538957  -0.45744567  -0.45720645  -0.07724841
  -0.07715694   0.11379141   0.11399928   0.14011606   0.14023818] [  0.705385     0.70539919   0.87546509   0.87550309   1.03565416
   1.03571152   1.05499289   1.05506526   1.2037739    1.20387197
   1.35517293   1.35523051   1.47222221   1.47224451   1.49763062
   1.49772217   1.52756802   1.52764335   1.63293555   1.63296625
   1.80648396   1.80650848   1.85814718   1.85819145   1.93050022
   1.9305317    1.938061     1.93808878   1.96030956   1.96032813
   2.02372117   2.02377776   2.08092248   2.08095569   2.2534608
   2.25349563   2.33817736   2.33826463   2.35059423   2.35062246
   2.45702639   2.45704125   2.5382446    2.53828241   2.7476554
   2.7477659    2.764243     2.76427738   2.83773733   2.83777012
   2.85537687   2.85538799   2.98120657   2.98127439   3.04082391
   3.0408501    3.08541117   3.08549166   3.18666881   3.18674183
   3.30356911   3.3036062    3.46435058   3.46440126   3.71271793
   3.71280027   3.79829212   3.79834975   4.21609634   4.21611592
   4.36789331   4.36800139   4.68145625   4.6814815    4.73620222
   4.73637533   4.84675436   4.84697946   4.99484887   4.99492525
   5.19299636   5.19311935   5.24494753   5.24511378   5.34169032
   5.341825     5.39482124   5.39497447   5.49947183   5.49964374
   5.59415909   5.59426505   5.65493236   5.65516531   5.98971858
   5.98980855   6.24228079   6.24232054   6.32044324   6.32047405
   6.48959502   6.48969209   6.50145576   6.50159045   6.61733297
   6.61748188   6.63267537   6.63280469   6.77200191   6.77206021
   6.91219501   6.91227134   7.16394807   7.16402632   7.20081289
   7.20101243   7.61717071   7.61733069  10.10487557  10.10489901
  11.36854439  11.36855323  11.65654105  11.65657538  11.71586245
  11.71587961  19.72464648  19.72466568  19.7252465   19.72525788
  19.73443233  19.73445094  19.74543137  19.74545863  19.74680654
  19.74681165  19.76398101  19.76400228  19.76809524  19.76810598
  22.29904442  22.29958554  22.34263096  22.34278188  22.56231732
  22.56247906  23.70494036  23.7049887   23.73672421  23.73674676
  23.82374872  23.82376633  23.89729329  23.89730747  23.96405808
  23.96407643  24.6361552   24.63662697  37.50186075  37.5018762
  37.72068195  37.72070009  38.00157455  38.00160216  40.08043456
  40.08096733  40.11446392  40.11493018  40.16493461  40.16547348
  40.27971271  40.28017712  40.28155577  40.28212756  48.59425577
  48.5942818  110.28632263 110.28693273 110.32653654 110.32665663
 110.49174554 110.4918668  119.19265501 119.19325297]
    CPU time for get_k_kpts: make_kpt ki>=kj (0,*)     22.46 sec, wall time      0.75 sec
    CPU time for get_k_kpts: make_kpt ki>=kj (1,*)     57.85 sec, wall time      1.89 sec
    CPU time for get_k_kpts: make_kpt ki>=kj (2,*)     86.70 sec, wall time      2.86 sec
    CPU time for get_k_kpts: make_kpt ki>=kj (3,*)    120.90 sec, wall time      3.95 sec
    CPU time for get_k_kpts: make_kpt ki>=kj (4,*)    139.76 sec, wall time      4.62 sec
    CPU time for get_k_kpts: make_kpt ki>=kj (5,*)    165.41 sec, wall time      5.47 sec
    CPU time for get_k_kpts: make_kpt ki>=kj (6,*)    188.10 sec, wall time      6.32 sec
    CPU time for get_k_kpts: make_kpt ki>=kj (7,*)    218.55 sec, wall time      7.28 sec
Monkhorst pack size [2 2 2] ew_eta 1.3059867597572923 ew_cut 5.384097344598738
Ewald components = 2.1452953489755e-105, -0.737233080691535, 0.64037152459719
    CPU time for get_j pass 1     93.77 sec, wall time      3.12 sec
    CPU time for get_j pass 2      6.39 sec, wall time      2.26 sec
    CPU time for vj and vk   1103.79 sec, wall time     38.64 sec
Ewald components = 1.30435514859409e-35, -627.49757153652, 488.979720419325
E1 = (-567.5453905065411-3.011015090744329e-14j)  E_coul = (112.9384679518415+3.302543049227751e-15j)
cycle= 2 E= -593.124773671895  delta_E= -0.0591  |g|= 0.535  |ddm|=  708
    CPU time for cycle= 2   1108.77 sec, wall time     38.90 sec
diis-norm(errvec)=2.33317
diis-c [-4.94694743+3.58732407e-43j  0.1381718 +1.20310893e-28j
  0.8618282 -1.20310893e-28j]
HOMO = 0.173306900529  LUMO = 0.672490278925
     k-point                  mo_energy
   0 ( 0.000  0.000  0.000)   [-57.88286509 -57.88281234 -14.98316633 -14.98286576  -4.30176705
  -4.30167525  -2.61739566  -2.61701042  -2.61700804  -2.61687223
  -2.61686992  -2.61671251  -0.60119102  -0.50570167  -0.11305033
   0.10148937   0.10150392   0.13421523   0.13421811   0.1733069 ] [  0.67249028   0.78466248   0.96038975   0.9603941    0.96294216
   1.03907686   1.05069487   1.0507004    1.09172506   1.09173323
   1.10648394   1.19704696   1.1970519    1.2837233    1.42608435
   1.46842528   1.46843148   1.50832287   1.63962553   1.63963747
   1.72931013   1.77379714   1.77380112   1.83655079   1.88146278
   1.88147342   1.98238014   2.02625022   2.02625216   2.06376694
   2.09546511   2.09547075   2.14465901   2.21489066   2.32888188
   2.32889999   2.43301551   2.43302167   2.47282702   2.62052105
   2.65198252   2.68411529   2.68413054   2.73939093   2.73939221
   2.78377954   2.78381759   2.80491155   2.80492738   2.82879978
   3.02943975   3.02945853   3.04723473   3.09514192   3.09515381
   3.10629615   3.13478572   3.13479834   3.15856217   3.20869651
   3.2087235    3.23800915   3.39005156   3.39008759   3.41428767
   3.42438833   3.42441065   3.48379411   4.03709519   4.15516886
   4.15518205   4.16377488   4.41119315   4.65895463   4.69959826
   4.69961264   4.9223285    4.92233853   4.92740309   4.98680971
   5.09045325   5.09046041   5.11840249   5.1855076    5.18551082
   5.2945881    5.3031822    5.39085216   5.3908554    5.45573594
   5.53738295   5.53739378   5.59211768   5.59212996   5.92678196
   6.11746652   6.2165632    6.21656546   6.32909301   6.32909637
   6.36922671   6.36922717   6.4231764    6.42317973   6.45365869
   6.45366147   6.46741088   6.47033231   6.61864714   6.61864976
   6.82168543   6.82168975   6.99357725   6.99840831   7.20061038
   7.2188752    7.21888272   7.35177354   9.38401735  10.00777106
  11.17850765  11.22079668  11.22079912  11.7022037   11.70220519
  11.77993482  19.76932879  19.76932901  19.77523246  19.77801065
  19.78457534  19.78457626  19.78554137  19.78554244  19.78571511
  19.80496422  19.80496445  19.81364838  19.81839566  19.81986866
  22.13747909  22.30358037  22.30358345  22.32248509  22.32248873
  22.50504086  23.7560809   23.82296229  23.82296256  23.84225096
  23.84225167  23.98298878  23.98298983  24.00086246  24.01470922
  24.01728364  24.01728439  24.61853748  37.35508201  37.41918299
  37.41918447  37.9046135   38.0162132   38.01621568  39.93112399
  39.93112494  39.94290889  39.94290993  40.0161106   40.01653086
  40.01653403  40.02814141  40.0281449   40.04333213  47.69573314
  48.75423306 110.11094017 110.23095098 110.23095278 110.24980843
 110.24981033 110.35120043 117.99723123 119.24729393]
   1 ( 0.000  0.000  0.500)   [-5.78828652e+01 -5.78828125e+01 -1.49831687e+01 -1.49828702e+01
 -4.30173952e+00 -4.30170484e+00 -2.61706237e+00 -2.61702708e+00
 -2.61695873e+00 -2.61695625e+00 -2.61692306e+00 -2.61692082e+00
 -5.60951802e-01 -5.60859652e-01  1.80435245e-02  1.81043028e-02
  1.17367185e-01  1.17374593e-01  1.17474355e-01  1.17485293e-01] [  0.776019     0.77606575   0.93329328   0.93331174   0.97154321
   0.97154787   0.97156506   0.97156911   1.23734945   1.23737463
   1.24405015   1.24405528   1.24406442   1.24406872   1.39997078
   1.39997628   1.39997673   1.39998146   1.51134587   1.51135941
   1.71495394   1.71497313   1.91678628   1.9168058    1.92592776
   1.92593151   1.92598906   1.92599112   2.17376899   2.17377385
   2.17378372   2.17379042   2.35478946   2.35479813   2.35481671
   2.35482283   2.40482066   2.40483736   2.46650382   2.46651078
   2.46652615   2.46653715   2.53638026   2.53639172   2.81455901
   2.81459775   2.85811837   2.85813119   2.88132548   2.88133913
   2.88135874   2.88136912   2.95819413   2.95820153   2.9582247
   2.958234     3.18472575   3.18476838   3.2626831    3.26272207
   3.26273105   3.26275487   3.43620374   3.43622345   3.43623836
   3.43625673   3.4526214    3.45266724   3.97575847   3.97578512
   4.46164309   4.46165771   4.46166513   4.46167022   4.46970669
   4.46975069   4.9126242    4.91265794   5.13567017   5.13567471
   5.13575958   5.13576519   5.27074177   5.27074813   5.27079741
   5.27080488   5.33184998   5.33191125   5.38556012   5.38566744
   5.68477112   5.68477731   5.68479021   5.68479763   6.1398639
   6.13991851   6.21105018   6.21105071   6.21106469   6.21106917
   6.43622627   6.43622972   6.43631617   6.43631768   6.4756988
   6.47578845   6.5643862    6.56438783   6.56446057   6.56446247
   6.81664428   6.81667558   6.99023634   6.99023929   6.99028885
   6.99029167   7.17567222   7.17571177  10.05020708  10.05024298
  11.17357358  11.17360257  11.59491265  11.59491629  11.59494585
  11.59495055  19.77413985  19.77414022  19.77415835  19.77415895
  19.78139325  19.78142832  19.79564869  19.79564915  19.79566723
  19.79566801  19.79910364  19.7991385   19.82241989  19.82245325
  22.27812762  22.27837517  22.37924025  22.37924314  22.3795026
  22.37950587  23.7880069   23.78800726  23.78804571  23.78804602
  23.94795319  23.94798569  23.99250746  23.99250771  23.99254148
  23.99254244  24.29579485  24.29599598  37.2686163   37.26866143
  37.93343604  37.93343765  37.93347888  37.93348143  39.94232651
  39.94232742  39.94256558  39.94256585  39.99574473  39.99603405
  40.01177804  40.0117809   40.01201682  40.01201957  48.84172244
  48.84176496 110.24173521 110.24204712 110.28104729 110.28104886
 110.28135818 110.28136019 118.56081702 118.56112468]
   2 ( 0.000  0.500  0.000)   [-5.78828652e+01 -5.78828124e+01 -1.49832197e+01 -1.49829209e+01
 -4.30170141e+00 -4.30165680e+00 -2.61752746e+00 -2.61742226e+00
 -2.61721813e+00 -2.61714779e+00 -2.61702807e+00 -2.61691478e+00
 -5.14762548e-01 -4.83611968e-01 -8.73546118e-02 -2.67553849e-02
  7.34112737e-03  4.66563178e-02  9.00404767e-02  1.15987672e-01] [  0.72183298   0.73605323   0.839541     0.93722156   0.93827104
   1.03152683   1.03839019   1.14050445   1.17019737   1.2944488
   1.29565074   1.32151841   1.44048227   1.45912332   1.50390536
   1.50957484   1.53638286   1.56155783   1.60852658   1.63240727
   1.7222841    1.7454346    1.7688245    1.77022204   1.87058436
   1.89924465   1.9364038    1.93716724   1.97210959   1.98251325
   2.1354602    2.17343434   2.19388089   2.20399644   2.24765053
   2.28797292   2.36271294   2.37447269   2.37718396   2.38222955
   2.44279224   2.45101378   2.48102664   2.49137311   2.65797629
   2.73449151   2.76137693   2.76571513   2.8006831    2.84846478
   2.87789381   2.93207629   2.94898585   2.95544296   2.98254213
   3.04289762   3.05662018   3.07831653   3.20950725   3.27858279
   3.3376174    3.35142707   3.39761778   3.47590889   3.71081115
   3.91220403   3.95777913   3.97915398   4.26676022   4.36218091
   4.3732494    4.44410622   4.49209736   4.67840779   4.72125756
   4.72359803   4.72611636   4.86809898   4.89250679   4.98766771
   5.04071571   5.14936945   5.22022463   5.28975805   5.33710902
   5.36151928   5.36188727   5.38457636   5.38848556   5.43164408
   5.55442047   5.58902101   5.65505005   5.69195482   6.06231756
   6.06553749   6.076065     6.23205575   6.29414221   6.30484563
   6.38049097   6.39387244   6.41768236   6.43848132   6.43885105
   6.5039343    6.57076272   6.62060351   6.67076934   6.83347365
   6.91432193   6.95105408   7.22018014   7.29524046   7.29865548
   7.37987672   7.68752854   7.7554346    9.90429682  10.22900584
  11.26888338  11.36816145  11.59090126  11.81728285  11.83216626
  11.98351831  19.75705047  19.76431237  19.76462972  19.76843895
  19.76998393  19.7736727   19.78250363  19.78716621  19.78816662
  19.78826277  19.79215482  19.80107596  19.80304024  19.80692173
  22.13945092  22.22132936  22.30231486  22.37432746  22.44705923
  22.50031643  23.63753392  23.73038929  23.81612689  23.84459493
  23.86346074  23.87168001  23.90849652  23.96111801  23.98577102
  24.12690671  24.13257657  24.97325267  37.41240003  37.57194815
  37.75737755  38.03647458  38.22364449  38.35002717  39.89871037
  39.92712453  39.93861339  39.942022    39.99793048  40.01031492
  40.10522925  40.11202916  40.12145091  40.13809646  48.65805505
  48.71231757 110.09703371 110.16870048 110.22828306 110.29913287
 110.3363982  110.36110671 117.82806527 119.8238735 ]
   3 ( 0.000  0.500  0.500)   [-57.88286527 -57.88281252 -14.98321865 -14.98292017  -4.30169767
  -4.301663    -2.61754905  -2.61752112  -2.61714105  -2.61710542
  -2.61697585  -2.61694819  -0.49838176  -0.49828245  -0.09691829
  -0.09686728   0.07831543   0.0784161    0.10379996   0.10384162] [  0.70645846   0.70647146   0.87775766   0.87778287   1.01891565
   1.01894654   1.05200525   1.05202793   1.19628354   1.19632944
   1.35610053   1.35612807   1.46560643   1.46561427   1.49144112
   1.49147925   1.52450181   1.52454279   1.62424475   1.62425476
   1.797445     1.79745986   1.85908671   1.85910632   1.93233918
   1.93237929   1.9408595    1.94087169   1.96290536   1.96290981
   2.02829752   2.0283299    2.0819983    2.08201533   2.25277995
   2.25279448   2.32521678   2.32525621   2.34940697   2.34943017
   2.455542     2.45555127   2.53675934   2.53677427   2.73626284
   2.73633721   2.76948716   2.76949339   2.8437198    2.84373865
   2.84732452   2.84734712   2.97058286   2.97061448   3.02787602
   3.02788954   3.07674907   3.07678063   3.17740095   3.17743196
   3.29812213   3.29813551   3.45583157   3.45584866   3.70229997
   3.70232964   3.78813888   3.7881683    4.22091905   4.2209268
   4.36460911   4.36466242   4.66864321   4.66868113   4.69421938
   4.69428881   4.79938319   4.79947111   4.95057907   4.95062879
   5.15601928   5.15607978   5.21055723   5.21062935   5.30094438
   5.30100648   5.36633843   5.36639891   5.46240527   5.46248175
   5.56563431   5.56567962   5.61030565   5.61040547   5.9807837
   5.98084255   6.2154615    6.2154788    6.31853659   6.31856079
   6.46364136   6.46369721   6.46630336   6.46633881   6.58522032
   6.58529244   6.58735123   6.5873996    6.75861183   6.75862576
   6.88789241   6.887934     7.12578571   7.12582748   7.16331177
   7.16339219   7.59027423   7.59034267  10.13380533  10.13383358
  11.40078725  11.4008058   11.68793199  11.68795748  11.74847063
  11.74849883  19.76287664  19.76290001  19.76356002  19.76357402
  19.77274678  19.7727719   19.78363822  19.7836721   19.78505646
  19.78506457  19.80224482  19.80227423  19.80617739  19.80619144
  22.15445492  22.15472143  22.19981315  22.19988834  22.42041038
  22.42048775  23.7406997   23.74074882  23.78358298  23.78361391
  23.86193271  23.86195551  23.94312167  23.94314938  24.00762182
  24.00764501  24.51658332  24.51680688  37.55747683  37.55750422
  37.77626672  37.77629543  38.05533217  38.05537538  39.92088758
  39.92115274  39.95482815  39.95506059  40.00548709  40.00575593
  40.12235038  40.12257813  40.12272554  40.12300959  48.64919458
  48.64923638 110.11279104 110.11310252 110.15299474 110.1530573
 110.31825401 110.31831482 119.02226482 119.02257242]
   4 ( 0.500  0.000  0.000)   [-5.78828652e+01 -5.78828124e+01 -1.49832197e+01 -1.49829209e+01
 -4.30170141e+00 -4.30165680e+00 -2.61752913e+00 -2.61742414e+00
 -2.61721641e+00 -2.61714790e+00 -2.61702637e+00 -2.61691456e+00
 -5.14758003e-01 -4.83611275e-01 -8.73683047e-02 -2.67549098e-02
  7.34367985e-03  4.66604718e-02  9.00477508e-02  1.15990660e-01] [  0.72181441   0.7360514    0.83953522   0.9372146    0.93827241
   1.03153523   1.03839523   1.14050511   1.17020097   1.29445173
   1.29564709   1.32152093   1.44047855   1.45912056   1.50390969
   1.50957637   1.536383     1.56155413   1.60852521   1.63241185
   1.72228579   1.74543269   1.76882554   1.77023618   1.87058431
   1.89924848   1.93640442   1.93716702   1.97210934   1.98251933
   2.13546783   2.17343845   2.19389104   2.20399343   2.24764598
   2.28797761   2.36271153   2.37448473   2.37718288   2.38222701
[...]
   2.35587444   2.40505036   2.40506492   2.46615975   2.46616524
   2.46618232   2.46619287   2.53627663   2.53627945   2.81832439
   2.81833286   2.85855886   2.85856327   2.88042017   2.88042412
   2.88043432   2.8804353    2.96017515   2.96018785   2.96019571
   2.96019984   3.18831241   3.18831539   3.26652926   3.26655088
   3.26656948   3.26657825   3.4398496    3.43985616   3.4398703
   3.43987899   3.45595786   3.45597481   3.97495549   3.97496154
   4.46174854   4.46175983   4.46176067   4.46176621   4.47374628
   4.47375418   4.92717756   4.92718018   5.15169507   5.15169892
   5.15170697   5.15171004   5.28378597   5.28379169   5.28379549
   5.28379803   5.34467387   5.34468206   5.39891882   5.39892975
   5.69595286   5.69595793   5.69596073   5.69597106   6.14753117
   6.14753684   6.2141785    6.21418157   6.21418179   6.21418189
   6.44866226   6.44866406   6.44867155   6.44867471   6.49108152
   6.49108918   6.57404727   6.57404897   6.57405737   6.57405928
   6.82908364   6.82910331   6.99649943   6.99650211   6.99650677
   6.99650921   7.18446179   7.18446715  10.04507096  10.04507318
  11.16719934  11.16720156  11.58839715  11.5883974   11.58839867
  11.58840104  19.76676088  19.7667611   19.7667619   19.76676218
  19.77403357  19.77403549  19.78828602  19.78828608  19.78828707
  19.78828714  19.79176391  19.79176592  19.81520499  19.8152069
  22.31547248  22.31549946  22.41666408  22.41666484  22.41669313
  22.41669375  23.77923268  23.77923307  23.77923531  23.77923577
  23.94560595  23.94560822  23.98440844  23.98440888  23.98441051
  23.98441065  24.32693956  24.32696121  37.25834847  37.25835012
  37.9231327   37.92313538  37.92313608  37.92313736  39.98379803
  39.98379815  39.98382442  39.98382459  40.03744386  40.03747577
  40.05314893  40.0531491   40.05317529  40.0531755   48.83171266
  48.83171508 110.28698785 110.28702191 110.32595546 110.32595553
 110.32598964 110.32598969 118.60514716 118.6051801 ]
   2 ( 0.000  0.500  0.000)   [-5.78970832e+01 -5.78970797e+01 -1.49402023e+01 -1.49401674e+01
 -4.30821538e+00 -4.30818798e+00 -2.62529851e+00 -2.62520326e+00
 -2.62499454e+00 -2.62491927e+00 -2.62481237e+00 -2.62469383e+00
 -5.04477608e-01 -4.72816933e-01 -7.94680204e-02 -1.95513546e-02
  1.35491228e-02  5.55683367e-02  9.58433628e-02  1.25997677e-01] [  0.72481664   0.73784538   0.84549995   0.93872983   0.94380379
   1.03819164   1.04307073   1.14079293   1.17450605   1.29635623
   1.29882981   1.32302242   1.44186159   1.45940627   1.5063476
   1.51274463   1.53643169   1.56314325   1.61020667   1.63355602
   1.72423282   1.74593373   1.76651326   1.76860501   1.87236182
   1.89968654   1.93652333   1.94058423   1.97299845   1.98181519
   2.13338415   2.17340089   2.19374112   2.2079899    2.24830904
   2.28818722   2.36210591   2.37330518   2.37706721   2.38134176
   2.44496538   2.45136784   2.4821207    2.49226209   2.65898613
   2.7360402    2.76628442   2.76739916   2.80127204   2.85243925
   2.87646244   2.93077767   2.95258876   2.95684793   2.98698213
   3.04400784   3.05921599   3.0819677    3.20950895   3.27940626
   3.34097733   3.35446802   3.39958234   3.48112191   3.71617492
   3.91561176   3.96297763   3.98388224   4.26471193   4.37261353
   4.37274016   4.44823905   4.49429339   4.68703961   4.72713179
   4.73612554   4.73667564   4.88101407   4.90626858   4.99838627
   5.05659719   5.16046414   5.23221055   5.30240494   5.35084251
   5.37014666   5.37324096   5.39695804   5.40099191   5.44053866
   5.56534286   5.60419172   5.66939684   5.70191982   6.07050465
   6.07257256   6.0814629    6.23957609   6.30769847   6.31716288
   6.39108827   6.40441055   6.43192182   6.44226      6.44573785
   6.51118101   6.57608073   6.62242316   6.67673803   6.84759805
   6.91990561   6.95392055   7.23241287   7.30611027   7.31100406
   7.39178383   7.69863707   7.76049951   9.89901679  10.22416871
  11.26222706  11.36145807  11.58444698  11.81100247  11.82589772
  11.97709585  19.74966431  19.75694371  19.75724443  19.76104356
  19.76259048  19.76629916  19.77511718  19.77984301  19.7807797
  19.78091036  19.78478597  19.79371868  19.79566334  19.79955085
  22.17740565  22.25982999  22.34025847  22.41153289  22.48440528
  22.53638631  23.66489896  23.72200158  23.80726992  23.83588101
  23.85629116  23.86360814  23.90032994  23.95241797  23.97808679
  24.12455901  24.12762179  25.00742425  37.40193932  37.56145611
  37.74725966  38.02622074  38.21369745  38.34017728  39.94012553
  39.9687327   39.97982353  39.98350444  40.03926088  40.05148446
  40.14672958  40.15268564  40.16266362  40.17918614  48.64799898
  48.70235706 110.14181761 110.21379809 110.2732251  110.34391197
 110.38115466 110.40603028 117.87226116 119.86797373]
   3 ( 0.000  0.500  0.500)   [-57.89708332 -57.89707976 -14.94020047 -14.94016758  -4.3082038
  -4.30820187  -2.62530814  -2.62530666  -2.62490457  -2.62490267
  -2.62474211  -2.62474039  -0.48780434  -0.48779278  -0.08927904
  -0.08927393   0.08771101   0.08772169   0.10986358   0.10986911] [  0.71019693   0.7101983    0.87923236   0.87923383   1.0265965
   1.02659939   1.05417546   1.05417773   1.19977374   1.19977723
   1.35665806   1.35666078   1.46839996   1.46840264   1.49323728
   1.49324142   1.52524544   1.52524744   1.6271758    1.62718358
   1.80027965   1.80028153   1.85844093   1.85845051   1.93169021
   1.93171421   1.93993408   1.93993546   1.96206551   1.96207262
   2.02708588   2.02708804   2.08143164   2.0814342    2.25324057
   2.25327024   2.32917621   2.32918227   2.34951058   2.34952443
   2.45597234   2.4559842    2.53726962   2.53727246   2.73990167
   2.73992084   2.76793927   2.76794228   2.84214695   2.84215706
   2.84998754   2.8500007    2.97382961   2.97383615   3.03198931
   3.03199105   3.07969341   3.07970008   3.18101835   3.18102133
   3.30016886   3.3001724    3.45891558   3.45892028   3.70593743
   3.7059528    3.79128791   3.79129343   4.22047448   4.22047714
   4.36658316   4.36658722   4.67429709   4.67430057   4.70703109
   4.70704375   4.81263654   4.81264854   4.96398607   4.96399209
   5.16801702   5.16801966   5.22243816   5.22244582   5.31391097
   5.31391516   5.37640042   5.37640767   5.4752209    5.47523123
   5.57519049   5.57519396   5.62435516   5.62436704   5.98545047
   5.98545407   6.2246807    6.22468534   6.32249943   6.32250405
   6.47363165   6.47363735   6.47543012   6.47543566   6.5964722
   6.59647526   6.5997108    6.59971853   6.76332974   6.76333375
   6.89557579   6.89558408   7.13763403   7.13763592   7.17450492
   7.17451193   7.5987182    7.5987244   10.12870222  10.12870298
  11.39445156  11.39445374  11.68175992  11.68176378  11.74207081
  11.74207404  19.75551878  19.75552     19.75617556  19.75617627
  19.76537818  19.76537979  19.77628102  19.77628301  19.777678
  19.7776785   19.79489988  19.79490153  19.79885193  19.79885266
  22.19242454  22.192454    22.23760893  22.23761687  22.45784634
  22.45785475  23.7351158   23.73511963  23.7748149   23.77481709
  23.85534978  23.85535132  23.93460076  23.93460267  23.99974455
  23.99974561  24.54794378  24.54796838  37.54717672  37.54717931
  37.76597087  37.76597265  38.04552396  38.04552736  39.96244473
  39.96247405  39.99643322  39.99645869  40.04706339  40.04709287
  40.16303138  40.16305657  40.16412242  40.16415381  48.6391812
  48.63918417 110.1577109  110.15774508 110.1980007  110.19800738
 110.36318012 110.3631868  119.06654801 119.06658156]
   4 ( 0.500  0.000  0.000)   [-5.78970832e+01 -5.78970797e+01 -1.49402023e+01 -1.49401674e+01
 -4.30821538e+00 -4.30818798e+00 -2.62529852e+00 -2.62520325e+00
 -2.62499456e+00 -2.62491927e+00 -2.62481237e+00 -2.62469383e+00
 -5.04477613e-01 -4.72816924e-01 -7.94679881e-02 -1.95513582e-02
  1.35490853e-02  5.55683583e-02  9.58434391e-02  1.25997675e-01] [  0.7248166    0.73784529   0.84550021   0.93872967   0.94380396
   1.03819132   1.04307069   1.14079285   1.17450604   1.2963573
   1.2988304    1.32302176   1.44186037   1.45940615   1.50634944
   1.51274463   1.53643107   1.56314295   1.61020706   1.63355893
   1.72423353   1.74593168   1.76651241   1.76861825   1.87236224
   1.89968895   1.93652297   1.94058387   1.97299976   1.98181943
   2.13339254   2.17340491   2.19375002   2.20798785   2.24830313
   2.28819083   2.36210441   2.37331787   2.37706398   2.38133896
   2.4449528    2.45137607   2.48211663   2.49227605   2.65900078
   2.73601702   2.76629259   2.76739941   2.80127556   2.85243686
   2.87645422   2.93078121   2.95259376   2.95682128   2.98698985
   3.04399207   3.05923764   3.08196763   3.20949468   3.27941092
   3.34097799   3.35447225   3.3995782    3.48111546   3.71617517
   3.9156119    3.96294889   3.98386966   4.26471127   4.37261818
   4.37273832   4.44824066   4.49429201   4.68703859   4.7271359
   4.73611939   4.73667585   4.88101453   4.90626825   4.99838943
   5.05659542   5.16046274   5.23220835   5.30239666   5.35083407
   5.37013934   5.37324246   5.39695565   5.40098762   5.44053329
   5.56532001   5.60419302   5.66939784   5.70192087   6.07050652
   6.07257184   6.08146381   6.2395799    6.30769746   6.31716355
   6.39108802   6.40441014   6.43192855   6.44225854   6.44572977
   6.51118026   6.57608306   6.62242212   6.67674057   6.84759417
   6.9199077    6.95391744   7.23240234   7.30610637   7.31100244
   7.39177805   7.69863502   7.76050476   9.89901706  10.22416881
  11.26222669  11.36145802  11.58444809  11.81100072  11.82589251
  11.97708786  19.74966429  19.7569437   19.75724441  19.76104353
  19.76259047  19.76629908  19.77511714  19.77984296  19.78077967
  19.78091033  19.78478618  19.7937186   19.79566334  19.79955063
  22.17740556  22.25982992  22.34025892  22.41153358  22.48440324
  22.53638684  23.6648993   23.72200176  23.80726954  23.83588067
  23.85629108  23.86360874  23.90032985  23.95241797  23.97808678
  24.12455857  24.12762164  25.00742387  37.40193895  37.56145605
  37.74726015  38.02622076  38.21369577  38.34017462  39.94012544
  39.96873273  39.97982371  39.98350442  40.03926074  40.05148435
  40.14672968  40.15268513  40.16266353  40.17918608  48.64799899
  48.70235708 110.14181759 110.21379807 110.27322518 110.34391207
 110.38115438 110.40603034 117.87226127 119.86797357]
   5 ( 0.500  0.000  0.500)   [-57.89708332 -57.89707976 -14.94020047 -14.94016758  -4.3082038
  -4.30820187  -2.62530814  -2.62530666  -2.62490458  -2.62490268
  -2.62474211  -2.62474039  -0.48780434  -0.48779277  -0.08927903
  -0.08927392   0.08771101   0.08772175   0.10986357   0.10986913] [  0.71019687   0.71019836   0.8792324    0.87923397   1.02659674
   1.02659978   1.05417537   1.05417772   1.19977437   1.19977856
   1.3566576    1.35665981   1.46840044   1.46840246   1.49323585
   1.49323997   1.52524729   1.52525133   1.62718162   1.62718358
   1.80027885   1.8002808    1.85844799   1.85845157   1.93169922
   1.93170801   1.93993377   1.93993985   1.96207234   1.96207552
   2.02708376   2.02708956   2.08141722   2.08143025   2.25326312
   2.25326929   2.32917091   2.32917879   2.34951956   2.34952492
   2.45597153   2.45598496   2.5372706    2.53727631   2.73991886
   2.73993343   2.76792506   2.76794309   2.84214524   2.84216239
   2.85000166   2.85000348   2.97382781   2.97383182   3.03197758
   3.03199102   3.0796761    3.07968667   3.18101723   3.18102507
   3.30014693   3.30017149   3.4589097    3.45892316   3.70594084
   3.70595103   3.79127057   3.7912845    4.2204734    4.22047573
   4.36657804   4.36659056   4.67428712   4.67429704   4.70703405
   4.70704522   4.81263855   4.81264477   4.96398753   4.96399448
   5.16801254   5.1680187    5.22243759   5.22244539   5.31390935
   5.3139181    5.37639953   5.37640391   5.47522162   5.47522854
   5.57518962   5.5751938    5.62435534   5.62436478   5.98545051
   5.98545708   6.22468366   6.22468465   6.32249863   6.3225021
   6.47362827   6.47363352   6.4754279    6.47543241   6.59647256
   6.59647956   6.59971176   6.59971625   6.76332391   6.76333314
   6.89557844   6.89558496   7.13763028   7.13763577   7.17450311
   7.17451513   7.59870989   7.59872678  10.12870161  10.12870375
  11.39445177  11.39445332  11.6817592   11.68176115  11.74206781
  11.74207379  19.75551878  19.75552     19.75617548  19.75617629
  19.76537828  19.76537968  19.77628105  19.77628303  19.77767802
  19.77767843  19.79489984  19.79490145  19.79885175  19.79885264
  22.19242432  22.19245396  22.23760907  22.23761713  22.45784654
  22.45785369  23.73511589  23.73511971  23.77481481  23.7748169
  23.85534926  23.8553513   23.93460109  23.93460266  23.99974468
  23.99974585  24.5479431   24.54796761  37.54717727  37.54717937
  37.76597044  37.76597195  38.04552301  38.04552745  39.96244491
  39.96247412  39.99643317  39.99645865  40.04706323  40.0470929
  40.16303125  40.16305646  40.16412237  40.16415388  48.63918109
  48.63918378 110.15771086 110.15774507 110.19800072 110.19800742
 110.36318015 110.36318667 119.06654778 119.06658135]
   6 ( 0.500  0.500  0.000)   [-5.78970832e+01 -5.78970797e+01 -1.49402023e+01 -1.49401674e+01
 -4.30821538e+00 -4.30818798e+00 -2.62529851e+00 -2.62520326e+00
 -2.62499455e+00 -2.62491926e+00 -2.62481237e+00 -2.62469383e+00
 -5.04477600e-01 -4.72816932e-01 -7.94679986e-02 -1.95513460e-02
  1.35490926e-02  5.55682783e-02  9.58434156e-02  1.25997573e-01] [  0.72481653   0.7378454    0.84549976   0.93872977   0.94380392
   1.03819181   1.04307021   1.14078984   1.17450493   1.29635832
   1.29882951   1.32302319   1.44186041   1.45941295   1.50634373
   1.51274011   1.53643415   1.56314204   1.61020535   1.63356284
   1.7242164    1.74591884   1.76647131   1.76863785   1.87235484
   1.8996742    1.93651779   1.94058582   1.97300298   1.98182239
   2.13339194   2.17340404   2.19375503   2.20797348   2.24830267
   2.28818383   2.36210487   2.37325298   2.37705616   2.38133769
   2.4449432    2.45134504   2.48213342   2.49227419   2.65904674
   2.73601645   2.76626398   2.76735943   2.80124676   2.85243904
   2.8764489    2.93078604   2.95258839   2.95681558   2.987005
   3.04397898   3.05928658   3.08193452   3.20948264   3.27941875
   3.34098369   3.35447189   3.39956806   3.48110841   3.71620182
   3.91560221   3.96291698   3.98382707   4.26469618   4.37261993
   4.37273408   4.44824134   4.4943022    4.68703239   4.7271274
   4.73611966   4.73667507   4.88101506   4.90626843   4.99839215
   5.05659895   5.16047116   5.23221556   5.30240786   5.35083946
   5.37014039   5.37324416   5.39696662   5.40098456   5.44054119
   5.56533388   5.604177     5.66939154   5.70191398   6.07051109
   6.07257104   6.0814642    6.23958582   6.30769773   6.31716606
   6.39109074   6.40441355   6.43194138   6.44226526   6.44572475
   6.5111793    6.576086     6.62243514   6.67673655   6.8475939
   6.91992275   6.95391705   7.23239372   7.30609765   7.31101201
   7.39178514   7.69862908   7.76049273   9.89902461  10.22417138
  11.26222244  11.36145683  11.5844524   11.81100945  11.82589584
  11.97709328  19.74966429  19.75694381  19.75724437  19.7610432
  19.7625905   19.76629923  19.77511705  19.77984317  19.78077945
  19.78091002  19.78478635  19.79371871  19.79566338  19.79955073
  22.17740542  22.25983087  22.3402597   22.41153332  22.48440442
  22.53638772  23.66489943  23.72200204  23.80726954  23.83588203
  23.85629025  23.86360983  23.90033064  23.95241836  23.97808633
  24.12455866  24.12762104  25.00742477  37.40193803  37.56145468
  37.74726237  38.02622424  38.21369558  38.34017569  39.94012534
  39.96873279  39.97982367  39.9835043   40.03926062  40.05148436
  40.14672968  40.15268514  40.16266414  40.17918583  48.64799967
  48.70236092 110.14181761 110.21379822 110.27322524 110.34391198
 110.38115457 110.40603045 117.87226101 119.86797365]
   7 ( 0.500  0.500  0.500)   [-57.89708332 -57.89707976 -14.94020047 -14.94016758  -4.30820379
  -4.30820187  -2.62530815  -2.62530667  -2.62490457  -2.62490267
  -2.6247421   -2.62474038  -0.48780434  -0.48779277  -0.08927904
  -0.08927394   0.08771094   0.0877217    0.10986357   0.10986918] [  0.71019715   0.7101985    0.87923226   0.87923411   1.02659627
   1.0265991    1.05417485   1.05417726   1.19977513   1.1997794
   1.35665845   1.356662     1.4683981    1.46839971   1.49323396
   1.49323792   1.52524606   1.52524909   1.62717655   1.62718128
   1.80027643   1.80027976   1.85843523   1.85844143   1.93172253
   1.93172332   1.93991934   1.93992614   1.96208023   1.962082
   2.02708641   2.02708897   2.08141086   2.08142102   2.2532633
   2.25326874   2.3291734    2.32917833   2.3495108    2.3495218
   2.45597504   2.45598728   2.53726493   2.537278     2.7399347
   2.73994455   2.7678765    2.76790504   2.84211836   2.84213954
   2.84997496   2.84999      2.97383127   2.97383619   3.03198278
   3.03198777   3.07968719   3.07969895   3.18102053   3.1810245
   3.30015184   3.30017731   3.45891201   3.45892411   3.70594039
   3.7059465    3.79124533   3.79125529   4.22047358   4.22047643
   4.36657996   4.36658545   4.67429882   4.67430631   4.70703059
   4.70704446   4.81263141   4.81263508   4.9639951    4.96399761
   5.16801457   5.16801723   5.22243683   5.22244667   5.3139134
   5.31392275   5.37639924   5.37640625   5.4752224    5.47522581
   5.57519546   5.57520027   5.62434733   5.62436227   5.9854489
   5.98545308   6.22468568   6.22468793   6.32250626   6.32250702
   6.47363776   6.47364366   6.47542594   6.47543158   6.59647254
   6.59647573   6.59970684   6.59971715   6.76333449   6.76334085
   6.89558743   6.89559149   7.13762392   7.13762928   7.17450378
   7.17451394   7.59870581   7.59870678  10.12869986  10.12870216
  11.39445465  11.39445521  11.68176395  11.68176803  11.74207098
  11.74207474  19.75551867  19.75551995  19.75617544  19.75617614
  19.76537847  19.76537988  19.77628096  19.7762829   19.77767777
  19.77767822  19.79489989  19.79490152  19.79885188  19.79885278
  22.19242444  22.19245374  22.23760915  22.23761743  22.45784706
  22.45785483  23.73511611  23.73511984  23.77481521  23.77481709
  23.85534965  23.85535112  23.93460122  23.93460269  23.99974473
  23.99974573  24.547942    24.54796762  37.54717883  37.54718059
  37.76597185  37.76597313  38.04552278  38.04552619  39.96244464
  39.96247385  39.99643329  39.99645875  40.04706308  40.04709293
  40.16303168  40.16305702  40.16412217  40.16415335  48.63918121
  48.63918471 110.15771092 110.15774508 110.1980007  110.19800744
 110.3631802  110.36318677 119.0665474  119.06658132]
    CPU time for get_k_kpts: make_kpt ki>=kj (0,*)     21.24 sec, wall time      0.73 sec
    CPU time for get_k_kpts: make_kpt ki>=kj (1,*)     57.35 sec, wall time      1.89 sec
    CPU time for get_k_kpts: make_kpt ki>=kj (2,*)     81.46 sec, wall time      2.69 sec
    CPU time for get_k_kpts: make_kpt ki>=kj (3,*)    114.76 sec, wall time      3.78 sec
    CPU time for get_k_kpts: make_kpt ki>=kj (4,*)    137.11 sec, wall time      4.55 sec
    CPU time for get_k_kpts: make_kpt ki>=kj (5,*)    170.29 sec, wall time      5.63 sec
    CPU time for get_k_kpts: make_kpt ki>=kj (6,*)    196.25 sec, wall time      6.56 sec
    CPU time for get_k_kpts: make_kpt ki>=kj (7,*)    218.40 sec, wall time      7.30 sec
Monkhorst pack size [2 2 2] ew_eta 1.3059867597572923 ew_cut 5.384097344598738
Ewald components = 2.1452953489755e-105, -0.737233080691535, 0.64037152459719
    CPU time for get_j pass 1    102.23 sec, wall time      3.26 sec
    CPU time for get_j pass 2      6.46 sec, wall time      2.33 sec
    CPU time for vj and vk   1109.90 sec, wall time     38.86 sec
Ewald components = 1.30435514859409e-35, -627.49757153652, 488.979720419325
E1 = (-567.7298337321627-2.9523275661367e-14j)  E_coul = (113.11446276655073+3.2548984334184037e-15j)
Extra cycle  E= -593.133222082807  delta_E= -2.82e-09  |g|= 0.000109  |ddm|= 0.0784
    CPU time for scf_cycle 241683.27 sec, wall time   7818.63 sec
    CPU time for SCF 241683.30 sec, wall time   7818.66 sec
converged SCF energy = -593.133222082807
