#INFO: **** input file is /burg/ccce/users/eav2136/projects/core_level_spectroscopy/01_peommp2_cbe/meanfield.py ****
#!/usr/bin/env python
import json
from pyscf.pbc import gto, scf
from pyscf.pbc.tools import lattice, pyscf_ase
from pyscf.pbc.scf import chkfile
from fileutils import load, dump
import sys

material = load("data/{}".format(sys.argv[1]))
# Create Cell
cell = gto.Cell()
ase_atom = lattice.get_ase_atom(material["formula"])
cell.atom = pyscf_ase.ase_atoms_to_pyscf(ase_atom)
cell.a = ase_atom.cell[:]
cell.unit = "B"
cell.basis = material["basis"]
cell.exp_to_discard = material["exp_to_discard"]
cell.verbose = 7
cell.build()

# Mean Field
kdensity = material["kdensity"]
kmesh = [kdensity, kdensity, kdensity]
kpts = cell.make_kpts(kmesh, scaled_center=material["vb_scaled_center"])
mymf = scf.KRHF(cell, kpts=kpts, exxdiv="ewald")
mymf.chkfile = "data/{}".format(material["chk"])
mymf = mymf.density_fit()
mymf.with_df._cderi_to_save = "data/{}".format(material["cderi"])
ekrhf = mymf.kernel()
convergence = mymf.converged
mymf_data = dict([("ekrhf", float(ekrhf)),
                  ("convergence", bool(convergence))])
dump(mymf_data, "data/{}".format(material["ekrhf"]))
#INFO: ******************** input file end ********************


System: uname_result(system='Linux', node='g149', release='4.18.0-193.el8.x86_64', version='#1 SMP Fri Mar 27 14:35:58 UTC 2020', machine='x86_64')  Threads 32
Python 3.10.12 (main, Jul 29 2023, 11:27:27) [GCC 13.2.0]
numpy 1.25.1  scipy 1.10.1
Date: Fri Feb  2 11:41:06 2024
PySCF version 2.0.1
PySCF path  /burg/berkelbach/users/eav2136/builds/pyscf/projected-cvs/pyscf
GIT ORIG_HEAD 0bfbc692adf3ea63b8a509210433219cd1c472a2
GIT HEAD (branch projected-cvs) e14caaa2dddc538b9be2d86f01e5b456fc92da36

[ENV] PYSCF_TMPDIR /burg/ccce/users/eav2136/projects/core_level_spectroscopy/01_peommp2_cbe/tmp
[ENV] PYSCF_MAX_MEMORY 700000
[CONFIG] DEBUG = False
[CONFIG] MAX_MEMORY = 700000
[CONFIG] TMPDIR = /burg/ccce/users/eav2136/projects/core_level_spectroscopy/01_peommp2_cbe/tmp
[CONFIG] UNIT = angstrom
[CONFIG] VERBOSE = 3
[CONFIG] conf_file = None
[INPUT] verbose = 7
[INPUT] max_memory = 700000 
[INPUT] num. atoms = 2
[INPUT] num. electrons = 28
[INPUT] charge = 0
[INPUT] spin (= nelec alpha-beta = 2S) = 0
[INPUT] symmetry False subgroup None
[INPUT] Mole.unit = B
[INPUT]  1 Al     0.000000000000   0.000000000000   0.000000000000 AA    0.000000000000   0.000000000000   0.000000000000 Bohr
[INPUT]  2 P      1.362749902239   1.362749902239   1.362749902239 AA    2.575224091510   2.575224091510   2.575224091510 Bohr
[INPUT] ---------------- BASIS SET ---------------- 
[INPUT] l, kappa, [nprim/nctr], expnt,             c_1 c_2 ...
[INPUT] Al
[INPUT] 0    0    [13   /3   ]  205500            6.78836e-05 -1.76377e-05 4.07315e-06
                                30780             0.000527149 -0.000137195 3.16566e-05
                                7006              0.00276203 -0.00071891 0.000166116
                                1985              0.0114728 -0.00301146 0.000694992
                                649.1             0.0398188 -0.0106014 0.00245511
                                235               0.11504 -0.0321345 0.00744598
                                91.62             0.260887 -0.0803156 0.0188253
                                37.67             0.396386 -0.156794 0.0372772
                                15.91             0.284597 -0.168376 0.0419496
                                5.85              0.0444583 0.126879 -0.0354375
                                2.542             -0.00489838 0.561494 -0.175132
                                1.057             0.00261253 0.436613 -0.276203
                                0.1455            0.000722068 -0.0114563 0.652809
[INPUT] 0    0    [1    /1   ]  0.2931               1
[INPUT] 0    0    [1    /1   ]  0.0565               1
[INPUT] 1    0    [7    /2   ]  444.4             0.00162786 -0.000286341
                                105.1             0.0130687 -0.00242308
                                33.47             0.0612341 -0.0108658
                                12.33             0.18787 -0.0364307
                                4.869             0.360452 -0.0641074
                                1.961             0.408454 -0.0972239
                                0.1888            0.00976514 0.503448
[INPUT] 1    0    [1    /1   ]  0.7834               1
[INPUT] 1    0    [1    /1   ]  0.05557              1
[INPUT] 2    0    [1    /1   ]  0.109                1
[INPUT] 2    0    [1    /1   ]  0.333                1
[INPUT] 3    0    [1    /1   ]  0.244                1
[INPUT] 0    0    [1    /1   ]  7.488                1
[INPUT] 0    0    [1    /1   ]  1.272                1
[INPUT] 1    0    [1    /1   ]  2.202                1
[INPUT] 1    0    [1    /1   ]  5.548                1
[INPUT] 2    0    [1    /1   ]  2.634                1
[INPUT] 2    0    [1    /1   ]  8.646                1
[INPUT] 3    0    [1    /1   ]  5.686                1
[INPUT] P
[INPUT] 0    0    [13   /3   ]  312400            5.7696e-05 -1.56709e-05 4.30631e-06
                                46800             0.000448296 -0.000121724 3.34194e-05
                                10650             0.00234939 -0.000639672 0.000175885
                                3018              0.00978265 -0.00267426 0.00073434
                                986.8             0.0341467 -0.00949831 0.00261775
                                357.4             0.100204 -0.0289349 0.00797852
                                139.6             0.234372 -0.0745121 0.020794
                                57.63             0.382434 -0.149938 0.0424446
                                24.6              0.318088 -0.189467 0.0563436
                                10.12             0.0707788 0.036327 -0.0127358
                                4.283             -0.00181799 0.528816 -0.196495
                                1.805             0.0021618 0.519115 -0.353555
                                0.2782            0.000432297 -0.00925695 0.700912
[INPUT] 0    0    [1    /1   ]  0.6158               1
[INPUT] 0    0    [1    /1   ]  0.1055               1
[INPUT] 1    0    [7    /2   ]  504.9             0.00233728 -0.000555236
                                119.4             0.018541 -0.00445913
                                37.96             0.0849693 -0.020635
                                13.95             0.244615 -0.0617694
                                5.457             0.422766 -0.108924
                                2.177             0.368439 -0.105599
                                0.2877            -0.00379005 0.576981
[INPUT] 1    0    [1    /1   ]  0.801                1
[INPUT] 1    0    [1    /1   ]  0.09714              1
[INPUT] 2    0    [1    /1   ]  0.216                1
[INPUT] 2    0    [1    /1   ]  0.652                1
[INPUT] 3    0    [1    /1   ]  0.452                1
[INPUT] 0    0    [1    /1   ]  10.978               1
[INPUT] 0    0    [1    /1   ]  2.006                1
[INPUT] 1    0    [1    /1   ]  7.084                1
[INPUT] 1    0    [1    /1   ]  2.701                1
[INPUT] 2    0    [1    /1   ]  12.891               1
[INPUT] 2    0    [1    /1   ]  4.056                1
[INPUT] 3    0    [1    /1   ]  8.462                1

Ewald components = 1.25967104982813e-135, -881.045459580493, 778.181077139905
nuclear repulsion = -102.864382440588
number of shells = 32
number of NR pGTOs = 168
number of NR cGTOs = 118
basis = ccpcvtz
ecp = {}
bas 0, expnt(s) = [2.055e+05 3.078e+04 7.006e+03 1.985e+03 6.491e+02 2.350e+02 9.162e+01
 3.767e+01 1.591e+01 5.850e+00 2.542e+00 1.057e+00 1.455e-01]
bas 1, expnt(s) = [0.2931]
bas 2, expnt(s) = [0.0565]
bas 3, expnt(s) = [4.444e+02 1.051e+02 3.347e+01 1.233e+01 4.869e+00 1.961e+00 1.888e-01]
bas 4, expnt(s) = [0.7834]
bas 5, expnt(s) = [0.05557]
bas 6, expnt(s) = [0.109]
bas 7, expnt(s) = [0.333]
bas 8, expnt(s) = [0.244]
bas 9, expnt(s) = [7.488]
bas 10, expnt(s) = [1.272]
bas 11, expnt(s) = [2.202]
bas 12, expnt(s) = [5.548]
bas 13, expnt(s) = [2.634]
bas 14, expnt(s) = [8.646]
bas 15, expnt(s) = [5.686]
bas 16, expnt(s) = [3.124e+05 4.680e+04 1.065e+04 3.018e+03 9.868e+02 3.574e+02 1.396e+02
 5.763e+01 2.460e+01 1.012e+01 4.283e+00 1.805e+00 2.782e-01]
bas 17, expnt(s) = [0.6158]
bas 18, expnt(s) = [0.1055]
bas 19, expnt(s) = [5.049e+02 1.194e+02 3.796e+01 1.395e+01 5.457e+00 2.177e+00 2.877e-01]
bas 20, expnt(s) = [0.801]
bas 21, expnt(s) = [0.09714]
bas 22, expnt(s) = [0.216]
bas 23, expnt(s) = [0.652]
bas 24, expnt(s) = [0.452]
bas 25, expnt(s) = [10.978]
bas 26, expnt(s) = [2.006]
bas 27, expnt(s) = [7.084]
bas 28, expnt(s) = [2.701]
bas 29, expnt(s) = [12.891]
bas 30, expnt(s) = [4.056]
bas 31, expnt(s) = [8.462]
CPU time:         1.32
lattice vectors  a1 [0.000000000, 5.150448183, 5.150448183]
                 a2 [5.150448183, 0.000000000, 5.150448183]
                 a3 [5.150448183, 5.150448183, 0.000000000]
dimension = 3
low_dim_ft_type = None
Cell volume = 273.253
rcut = 32.79019015615983 (nimgs = [6 6 6])
lattice sum = 1241 cells
precision = 1e-08
pseudo = None
ke_cutoff = 611678.7590065906
    = [2094 2094 2094] mesh (9181846584 PWs)


******** <class 'pyscf.pbc.scf.khf.KRHF'> ********
method = KRHF-KSCF-RHF-SCF-RHF
initial guess = minao
damping factor = 0
level_shift factor = 0
DIIS = <class 'pyscf.scf.diis.CDIIS'>
diis_start_cycle = 1
diis_space = 8
SCF conv_tol = 1e-07
SCF conv_tol_grad = None
SCF max_cycles = 50
direct_scf = True
direct_scf_tol = 1e-13
chkfile to save SCF result = data/alp_ccpcvtz_k4_Al_2p_nvir_act14.chk
max_memory 700000 MB (current use 87 MB)


******** PBC SCF flags ********
N kpts = 64
kpts = [[ 0.00000000e+00  0.00000000e+00  0.00000000e+00]
 [ 1.52491227e-01  1.52491227e-01 -1.52491227e-01]
 [ 3.04982454e-01  3.04982454e-01 -3.04982454e-01]
 [ 4.57473681e-01  4.57473681e-01 -4.57473681e-01]
 [ 1.52491227e-01 -1.52491227e-01  1.52491227e-01]
 [ 3.04982454e-01  2.77555756e-17  0.00000000e+00]
 [ 4.57473681e-01  1.52491227e-01 -1.52491227e-01]
 [ 6.09964908e-01  3.04982454e-01 -3.04982454e-01]
 [ 3.04982454e-01 -3.04982454e-01  3.04982454e-01]
 [ 4.57473681e-01 -1.52491227e-01  1.52491227e-01]
 [ 6.09964908e-01  5.55111512e-17  0.00000000e+00]
 [ 7.62456135e-01  1.52491227e-01 -1.52491227e-01]
 [ 4.57473681e-01 -4.57473681e-01  4.57473681e-01]
 [ 6.09964908e-01 -3.04982454e-01  3.04982454e-01]
 [ 7.62456135e-01 -1.52491227e-01  1.52491227e-01]
 [ 9.14947362e-01  1.11022302e-16  2.77555756e-17]
 [-1.52491227e-01  1.52491227e-01  1.52491227e-01]
 [ 0.00000000e+00  3.04982454e-01  0.00000000e+00]
 [ 1.52491227e-01  4.57473681e-01 -1.52491227e-01]
 [ 3.04982454e-01  6.09964908e-01 -3.04982454e-01]
 [-5.55111512e-17  0.00000000e+00  3.04982454e-01]
 [ 1.52491227e-01  1.52491227e-01  1.52491227e-01]
 [ 3.04982454e-01  3.04982454e-01  0.00000000e+00]
 [ 4.57473681e-01  4.57473681e-01 -1.52491227e-01]
 [ 1.52491227e-01 -1.52491227e-01  4.57473681e-01]
 [ 3.04982454e-01  2.77555756e-17  3.04982454e-01]
 [ 4.57473681e-01  1.52491227e-01  1.52491227e-01]
 [ 6.09964908e-01  3.04982454e-01  2.77555756e-17]
 [ 3.04982454e-01 -3.04982454e-01  6.09964908e-01]
 [ 4.57473681e-01 -1.52491227e-01  4.57473681e-01]
 [ 6.09964908e-01  5.55111512e-17  3.04982454e-01]
 [ 7.62456135e-01  1.52491227e-01  1.52491227e-01]
 [-3.04982454e-01  3.04982454e-01  3.04982454e-01]
 [-1.52491227e-01  4.57473681e-01  1.52491227e-01]
 [ 0.00000000e+00  6.09964908e-01  0.00000000e+00]
 [ 1.52491227e-01  7.62456135e-01 -1.52491227e-01]
 [-1.52491227e-01  1.52491227e-01  4.57473681e-01]
 [-5.55111512e-17  3.04982454e-01  3.04982454e-01]
 [ 1.52491227e-01  4.57473681e-01  1.52491227e-01]
 [ 3.04982454e-01  6.09964908e-01  2.77555756e-17]
 [-1.11022302e-16  0.00000000e+00  6.09964908e-01]
 [ 1.52491227e-01  1.52491227e-01  4.57473681e-01]
 [ 3.04982454e-01  3.04982454e-01  3.04982454e-01]
 [ 4.57473681e-01  4.57473681e-01  1.52491227e-01]
 [ 1.52491227e-01 -1.52491227e-01  7.62456135e-01]
 [ 3.04982454e-01  2.77555756e-17  6.09964908e-01]
 [ 4.57473681e-01  1.52491227e-01  4.57473681e-01]
 [ 6.09964908e-01  3.04982454e-01  3.04982454e-01]
 [-4.57473681e-01  4.57473681e-01  4.57473681e-01]
 [-3.04982454e-01  6.09964908e-01  3.04982454e-01]
 [-1.52491227e-01  7.62456135e-01  1.52491227e-01]
 [-2.77555756e-17  9.14947362e-01  2.77555756e-17]
 [-3.04982454e-01  3.04982454e-01  6.09964908e-01]
 [-1.52491227e-01  4.57473681e-01  4.57473681e-01]
 [-5.55111512e-17  6.09964908e-01  3.04982454e-01]
 [ 1.52491227e-01  7.62456135e-01  1.52491227e-01]
 [-1.52491227e-01  1.52491227e-01  7.62456135e-01]
 [-1.38777878e-16  3.04982454e-01  6.09964908e-01]
 [ 1.52491227e-01  4.57473681e-01  4.57473681e-01]
 [ 3.04982454e-01  6.09964908e-01  3.04982454e-01]
 [-1.94289029e-16 -2.77555756e-17  9.14947362e-01]
 [ 1.52491227e-01  1.52491227e-01  7.62456135e-01]
 [ 3.04982454e-01  3.04982454e-01  6.09964908e-01]
 [ 4.57473681e-01  4.57473681e-01  4.57473681e-01]]
Exchange divergence treatment (exxdiv) = ewald
Monkhorst pack size [4 4 4] ew_eta 1.0426769913124163 ew_cut 6.741483201914274
Ewald components = 0, -0.588350115614293, 0.532713427173553
    madelung (= occupied orbital energy shift) = 0.11127337688147976
    Total energy shift due to Ewald probe charge = -1/2 * Nelec*madelung = -1.55782727634
DF object = <pyscf.pbc.df.df.GDF object at 0x155553f4bfd0>
Set gradient conv threshold to 0.000316228
Big error detected in the electron number of initial guess density matrix (Ne/cell = 27.9979)!
  This can cause huge error in Fock matrix and lead to instability in SCF for low-dimensional systems.
  DM is normalized wrt the number of electrons 28.0
    CPU time for vnuc pass1: analytic int   1066.59 sec, wall time     34.71 sec
    CPU time for contracting Vnuc [0:729]    138.95 sec, wall time      4.97 sec
    CPU time for contracting Vnuc    138.95 sec, wall time      4.97 sec
    CPU time for get_nuc   1206.44 sec, wall time     39.70 sec


******** <class 'pyscf.pbc.df.df.GDF'> ********
mesh = [9, 9, 9] (729 PWs)
auxbasis = None
eta = 0.2
exp_to_discard = None
_cderi_to_save = data/alp_ccpcvtz_k4_Al_2p_nvir_act14_cderi.h5
len(kpts) = 64
    kpts = [[ 0.00000000e+00  0.00000000e+00  0.00000000e+00]
 [ 1.52491227e-01  1.52491227e-01 -1.52491227e-01]
 [ 3.04982454e-01  3.04982454e-01 -3.04982454e-01]
 [ 4.57473681e-01  4.57473681e-01 -4.57473681e-01]
 [ 1.52491227e-01 -1.52491227e-01  1.52491227e-01]
 [ 3.04982454e-01  2.77555756e-17  0.00000000e+00]
 [ 4.57473681e-01  1.52491227e-01 -1.52491227e-01]
 [ 6.09964908e-01  3.04982454e-01 -3.04982454e-01]
 [ 3.04982454e-01 -3.04982454e-01  3.04982454e-01]
 [ 4.57473681e-01 -1.52491227e-01  1.52491227e-01]
 [ 6.09964908e-01  5.55111512e-17  0.00000000e+00]
 [ 7.62456135e-01  1.52491227e-01 -1.52491227e-01]
 [ 4.57473681e-01 -4.57473681e-01  4.57473681e-01]
 [ 6.09964908e-01 -3.04982454e-01  3.04982454e-01]
 [ 7.62456135e-01 -1.52491227e-01  1.52491227e-01]
 [ 9.14947362e-01  1.11022302e-16  2.77555756e-17]
 [-1.52491227e-01  1.52491227e-01  1.52491227e-01]
 [ 0.00000000e+00  3.04982454e-01  0.00000000e+00]
 [ 1.52491227e-01  4.57473681e-01 -1.52491227e-01]
 [ 3.04982454e-01  6.09964908e-01 -3.04982454e-01]
 [-5.55111512e-17  0.00000000e+00  3.04982454e-01]
 [ 1.52491227e-01  1.52491227e-01  1.52491227e-01]
 [ 3.04982454e-01  3.04982454e-01  0.00000000e+00]
 [ 4.57473681e-01  4.57473681e-01 -1.52491227e-01]
 [ 1.52491227e-01 -1.52491227e-01  4.57473681e-01]
 [ 3.04982454e-01  2.77555756e-17  3.04982454e-01]
 [ 4.57473681e-01  1.52491227e-01  1.52491227e-01]
 [ 6.09964908e-01  3.04982454e-01  2.77555756e-17]
 [ 3.04982454e-01 -3.04982454e-01  6.09964908e-01]
 [ 4.57473681e-01 -1.52491227e-01  4.57473681e-01]
 [ 6.09964908e-01  5.55111512e-17  3.04982454e-01]
 [ 7.62456135e-01  1.52491227e-01  1.52491227e-01]
 [-3.04982454e-01  3.04982454e-01  3.04982454e-01]
 [-1.52491227e-01  4.57473681e-01  1.52491227e-01]
 [ 0.00000000e+00  6.09964908e-01  0.00000000e+00]
 [ 1.52491227e-01  7.62456135e-01 -1.52491227e-01]
 [-1.52491227e-01  1.52491227e-01  4.57473681e-01]
 [-5.55111512e-17  3.04982454e-01  3.04982454e-01]
 [ 1.52491227e-01  4.57473681e-01  1.52491227e-01]
 [ 3.04982454e-01  6.09964908e-01  2.77555756e-17]
 [-1.11022302e-16  0.00000000e+00  6.09964908e-01]
 [ 1.52491227e-01  1.52491227e-01  4.57473681e-01]
 [ 3.04982454e-01  3.04982454e-01  3.04982454e-01]
 [ 4.57473681e-01  4.57473681e-01  1.52491227e-01]
 [ 1.52491227e-01 -1.52491227e-01  7.62456135e-01]
 [ 3.04982454e-01  2.77555756e-17  6.09964908e-01]
 [ 4.57473681e-01  1.52491227e-01  4.57473681e-01]
 [ 6.09964908e-01  3.04982454e-01  3.04982454e-01]
 [-4.57473681e-01  4.57473681e-01  4.57473681e-01]
 [-3.04982454e-01  6.09964908e-01  3.04982454e-01]
 [-1.52491227e-01  7.62456135e-01  1.52491227e-01]
 [-2.77555756e-17  9.14947362e-01  2.77555756e-17]
 [-3.04982454e-01  3.04982454e-01  6.09964908e-01]
 [-1.52491227e-01  4.57473681e-01  4.57473681e-01]
 [-5.55111512e-17  6.09964908e-01  3.04982454e-01]
 [ 1.52491227e-01  7.62456135e-01  1.52491227e-01]
 [-1.52491227e-01  1.52491227e-01  7.62456135e-01]
 [-1.38777878e-16  3.04982454e-01  6.09964908e-01]
 [ 1.52491227e-01  4.57473681e-01  4.57473681e-01]
 [ 3.04982454e-01  6.09964908e-01  3.04982454e-01]
 [-1.94289029e-16 -2.77555756e-17  9.14947362e-01]
 [ 1.52491227e-01  1.52491227e-01  7.62456135e-01]
 [ 3.04982454e-01  3.04982454e-01  6.09964908e-01]
 [ 4.57473681e-01  4.57473681e-01  4.57473681e-01]]
Even tempered Gaussians are generated as DF auxbasis for  Al P
  ETB auxbasis for Al  [[0, [7405.568, 1]], [0, [3702.784, 1]], [0, [1851.392, 1]], [0, [925.696, 1]], [0, [462.848, 1]], [0, [231.424, 1]], [0, [115.712, 1]], [0, [57.856, 1]], [0, [28.928, 1]], [0, [14.464, 1]], [0, [7.232, 1]], [0, [3.616, 1]], [0, [1.808, 1]], [0, [0.904, 1]], [0, [0.452, 1]], [0, [0.226, 1]], [0, [0.113, 1]], [1, [1836.0916571679966, 1]], [1, [918.0458285839983, 1]], [1, [459.02291429199914, 1]], [1, [229.51145714599957, 1]], [1, [114.75572857299979, 1]], [1, [57.37786428649989, 1]], [1, [28.688932143249946, 1]], [1, [14.344466071624973, 1]], [1, [7.172233035812487, 1]], [1, [3.5861165179062433, 1]], [1, [1.7930582589531217, 1]], [1, [0.8965291294765608, 1]], [1, [0.4482645647382804, 1]], [1, [0.2241322823691402, 1]], [1, [0.1120661411845701, 1]], [2, [455.22944, 1]], [2, [227.61472, 1]], [2, [113.80736, 1]], [2, [56.90368, 1]], [2, [28.45184, 1]], [2, [14.22592, 1]], [2, [7.11296, 1]], [2, [3.55648, 1]], [2, [1.77824, 1]], [2, [0.88912, 1]], [2, [0.44456, 1]], [2, [0.22228, 1]], [2, [0.11114, 1]], [3, [79.69542739003286, 1]], [3, [39.84771369501643, 1]], [3, [19.923856847508215, 1]], [3, [9.961928423754108, 1]], [3, [4.980964211877054, 1]], [3, [2.490482105938527, 1]], [3, [1.2452410529692635, 1]], [3, [0.6226205264846317, 1]], [3, [0.31131026324231587, 1]], [3, [0.15565513162115793, 1]], [4, [13.952, 1]], [4, [6.976, 1]], [4, [3.488, 1]], [4, [1.744, 1]], [4, [0.872, 1]], [4, [0.436, 1]], [4, [0.218, 1]]]
  ETB auxbasis for P  [[0, [13828.096, 1]], [0, [6914.048, 1]], [0, [3457.024, 1]], [0, [1728.512, 1]], [0, [864.256, 1]], [0, [432.128, 1]], [0, [216.064, 1]], [0, [108.032, 1]], [0, [54.016, 1]], [0, [27.008, 1]], [0, [13.504, 1]], [0, [6.752, 1]], [0, [3.376, 1]], [0, [1.688, 1]], [0, [0.844, 1]], [0, [0.422, 1]], [0, [0.211, 1]], [1, [3317.2271738071363, 1]], [1, [1658.6135869035681, 1]], [1, [829.3067934517841, 1]], [1, [414.65339672589204, 1]], [1, [207.32669836294602, 1]], [1, [103.66334918147301, 1]], [1, [51.831674590736505, 1]], [1, [25.915837295368252, 1]], [1, [12.957918647684126, 1]], [1, [6.478959323842063, 1]], [1, [3.2394796619210315, 1]], [1, [1.6197398309605158, 1]], [1, [0.8098699154802579, 1]], [1, [0.40493495774012894, 1]], [1, [0.20246747887006447, 1]], [2, [795.77088, 1]], [2, [397.88544, 1]], [2, [198.94272, 1]], [2, [99.47136, 1]], [2, [49.73568, 1]], [2, [24.86784, 1]], [2, [12.43392, 1]], [2, [6.21696, 1]], [2, [3.10848, 1]], [2, [1.55424, 1]], [2, [0.77712, 1]], [2, [0.38856, 1]], [2, [0.19428, 1]], [3, [148.32893611915378, 1]], [3, [74.16446805957689, 1]], [3, [37.082234029788445, 1]], [3, [18.541117014894223, 1]], [3, [9.270558507447111, 1]], [3, [4.635279253723556, 1]], [3, [2.317639626861778, 1]], [3, [1.158819813430889, 1]], [3, [0.5794099067154445, 1]], [3, [0.28970495335772223, 1]], [4, [13.824, 1]], [4, [6.912, 1]], [4, [3.456, 1]], [4, [1.728, 1]], [4, [0.864, 1]], [4, [0.432, 1]]]
num shells = 123, num cGTOs = 511
Drop 0 primitive fitting functions
make aux basis, num shells = 123, num cGTOs = 511
auxcell.rcut 17.24916021658648
make compensating basis, num shells = 10, num cGTOs = 50
chgcell.rcut 11.482117703874595
    CPU time for 3c2e  66604.32 sec, wall time   2434.13 sec
Num uniq kpts 172
uniq_kpts [[ 0.00000000e+00  0.00000000e+00  0.00000000e+00]
 [-1.52491227e-01 -1.52491227e-01  1.52491227e-01]
 [-3.04982454e-01 -3.04982454e-01  3.04982454e-01]
 [-4.57473681e-01 -4.57473681e-01  4.57473681e-01]
 [-1.52491227e-01  1.52491227e-01 -1.52491227e-01]
 [ 5.55111512e-17  3.04982454e-01 -3.04982454e-01]
 [ 1.52491227e-01  4.57473681e-01 -4.57473681e-01]
 [ 3.04982454e-01  6.09964908e-01 -6.09964908e-01]
 [-3.04982454e-01 -2.77555756e-17  0.00000000e+00]
 [-4.57473681e-01 -1.52491227e-01  1.52491227e-01]
 [-6.09964908e-01 -3.04982454e-01  3.04982454e-01]
 [-3.04982454e-01  3.04982454e-01 -3.04982454e-01]
 [-1.52491227e-01  4.57473681e-01 -4.57473681e-01]
 [ 1.11022302e-16  6.09964908e-01 -6.09964908e-01]
 [ 1.52491227e-01  7.62456135e-01 -7.62456135e-01]
 [-4.57473681e-01  1.52491227e-01 -1.52491227e-01]
 [-6.09964908e-01 -5.55111512e-17  0.00000000e+00]
 [-7.62456135e-01 -1.52491227e-01  1.52491227e-01]
 [-4.57473681e-01  4.57473681e-01 -4.57473681e-01]
 [-3.04982454e-01  6.09964908e-01 -6.09964908e-01]
 [-1.52491227e-01  7.62456135e-01 -7.62456135e-01]
 [ 2.22044605e-16  9.14947362e-01 -9.14947362e-01]
 [-6.09964908e-01  3.04982454e-01 -3.04982454e-01]
 [-7.62456135e-01  1.52491227e-01 -1.52491227e-01]
 [-9.14947362e-01 -1.11022302e-16 -2.77555756e-17]
 [ 1.52491227e-01 -1.52491227e-01 -1.52491227e-01]
 [ 3.04982454e-01  2.77555756e-17 -3.04982454e-01]
 [ 4.57473681e-01  1.52491227e-01 -4.57473681e-01]
 [ 6.09964908e-01  3.04982454e-01 -6.09964908e-01]
 [ 3.04982454e-01 -3.04982454e-01  0.00000000e+00]
 [ 4.57473681e-01 -1.52491227e-01 -1.52491227e-01]
 [ 6.09964908e-01  5.55111512e-17 -3.04982454e-01]
 [ 7.62456135e-01  1.52491227e-01 -4.57473681e-01]
 [ 4.57473681e-01 -4.57473681e-01  1.52491227e-01]
 [ 6.09964908e-01 -3.04982454e-01  0.00000000e+00]
 [ 7.62456135e-01 -1.52491227e-01 -1.52491227e-01]
 [ 9.14947362e-01  8.32667268e-17 -3.04982454e-01]
 [ 6.09964908e-01 -6.09964908e-01  3.04982454e-01]
 [ 7.62456135e-01 -4.57473681e-01  1.52491227e-01]
 [ 9.14947362e-01 -3.04982454e-01  2.77555756e-17]
 [ 1.06743859e+00 -1.52491227e-01 -1.52491227e-01]
 [ 0.00000000e+00 -3.04982454e-01  0.00000000e+00]
 [ 1.52491227e-01 -4.57473681e-01  1.52491227e-01]
 [ 3.04982454e-01 -6.09964908e-01  3.04982454e-01]
 [ 4.57473681e-01 -7.62456135e-01  4.57473681e-01]
 [-1.52491227e-01 -4.57473681e-01  1.52491227e-01]
 [-5.55111512e-17 -6.09964908e-01  3.04982454e-01]
 [ 1.52491227e-01 -7.62456135e-01  4.57473681e-01]
 [ 3.04982454e-01 -9.14947362e-01  6.09964908e-01]
 [-3.04982454e-01 -6.09964908e-01  3.04982454e-01]
 [-1.52491227e-01 -7.62456135e-01  4.57473681e-01]
 [-1.11022302e-16 -9.14947362e-01  6.09964908e-01]
 [ 1.52491227e-01 -1.06743859e+00  7.62456135e-01]
 [ 5.55111512e-17  0.00000000e+00 -3.04982454e-01]
 [ 1.52491227e-01  1.52491227e-01 -4.57473681e-01]
 [ 3.04982454e-01  3.04982454e-01 -6.09964908e-01]
 [ 4.57473681e-01  4.57473681e-01 -7.62456135e-01]
 [-1.52491227e-01 -1.52491227e-01 -1.52491227e-01]
 [-3.04982454e-01 -3.04982454e-01  0.00000000e+00]
 [-4.57473681e-01 -4.57473681e-01  1.52491227e-01]
 [-1.52491227e-01  1.52491227e-01 -4.57473681e-01]
 [ 1.11022302e-16  3.04982454e-01 -6.09964908e-01]
 [ 1.52491227e-01  4.57473681e-01 -7.62456135e-01]
 [ 3.04982454e-01  6.09964908e-01 -9.14947362e-01]
 [-3.04982454e-01 -2.77555756e-17 -3.04982454e-01]
 [-4.57473681e-01 -1.52491227e-01 -1.52491227e-01]
 [-6.09964908e-01 -3.04982454e-01 -2.77555756e-17]
 [-3.04982454e-01  3.04982454e-01 -6.09964908e-01]
 [-1.52491227e-01  4.57473681e-01 -7.62456135e-01]
 [ 1.66533454e-16  6.09964908e-01 -9.14947362e-01]
 [ 1.52491227e-01  7.62456135e-01 -1.06743859e+00]
 [-4.57473681e-01  1.52491227e-01 -4.57473681e-01]
 [-6.09964908e-01 -5.55111512e-17 -3.04982454e-01]
 [-7.62456135e-01 -1.52491227e-01 -1.52491227e-01]
 [ 3.04982454e-01 -3.04982454e-01 -3.04982454e-01]
 [ 4.57473681e-01 -1.52491227e-01 -4.57473681e-01]
 [ 6.09964908e-01  5.55111512e-17 -6.09964908e-01]
 [ 7.62456135e-01  1.52491227e-01 -7.62456135e-01]
 [ 4.57473681e-01 -4.57473681e-01 -1.52491227e-01]
 [ 6.09964908e-01 -3.04982454e-01 -3.04982454e-01]
 [ 7.62456135e-01 -1.52491227e-01 -4.57473681e-01]
 [ 9.14947362e-01  5.55111512e-17 -6.09964908e-01]
 [ 6.09964908e-01 -6.09964908e-01  0.00000000e+00]
 [ 7.62456135e-01 -4.57473681e-01 -1.52491227e-01]
 [ 9.14947362e-01 -3.04982454e-01 -3.04982454e-01]
 [ 1.06743859e+00 -1.52491227e-01 -4.57473681e-01]
 [ 7.62456135e-01 -7.62456135e-01  1.52491227e-01]
 [ 9.14947362e-01 -6.09964908e-01  5.55111512e-17]
 [ 1.06743859e+00 -4.57473681e-01 -1.52491227e-01]
 [ 1.21992982e+00 -3.04982454e-01 -3.04982454e-01]
 [ 1.52491227e-01 -4.57473681e-01 -1.52491227e-01]
 [ 3.04982454e-01 -6.09964908e-01  0.00000000e+00]
 [ 4.57473681e-01 -7.62456135e-01  1.52491227e-01]
 [ 6.09964908e-01 -9.14947362e-01  3.04982454e-01]
 [ 0.00000000e+00 -6.09964908e-01  0.00000000e+00]
 [ 1.52491227e-01 -7.62456135e-01  1.52491227e-01]
 [ 3.04982454e-01 -9.14947362e-01  3.04982454e-01]
 [ 4.57473681e-01 -1.06743859e+00  4.57473681e-01]
 [-1.52491227e-01 -7.62456135e-01  1.52491227e-01]
 [-5.55111512e-17 -9.14947362e-01  3.04982454e-01]
 [ 1.52491227e-01 -1.06743859e+00  4.57473681e-01]
 [ 3.04982454e-01 -1.21992982e+00  6.09964908e-01]
 [ 1.52491227e-01 -1.52491227e-01 -4.57473681e-01]
 [ 3.04982454e-01  2.77555756e-17 -6.09964908e-01]
 [ 4.57473681e-01  1.52491227e-01 -7.62456135e-01]
 [ 6.09964908e-01  3.04982454e-01 -9.14947362e-01]
 [ 5.55111512e-17 -3.04982454e-01 -3.04982454e-01]
 [-1.52491227e-01 -4.57473681e-01 -1.52491227e-01]
 [-3.04982454e-01 -6.09964908e-01 -2.77555756e-17]
 [ 1.11022302e-16  0.00000000e+00 -6.09964908e-01]
 [ 1.52491227e-01  1.52491227e-01 -7.62456135e-01]
 [ 3.04982454e-01  3.04982454e-01 -9.14947362e-01]
 [ 4.57473681e-01  4.57473681e-01 -1.06743859e+00]
 [-1.52491227e-01 -1.52491227e-01 -4.57473681e-01]
 [-3.04982454e-01 -3.04982454e-01 -3.04982454e-01]
 [-4.57473681e-01 -4.57473681e-01 -1.52491227e-01]
 [-1.52491227e-01  1.52491227e-01 -7.62456135e-01]
 [ 1.66533454e-16  3.04982454e-01 -9.14947362e-01]
 [ 1.52491227e-01  4.57473681e-01 -1.06743859e+00]
 [ 3.04982454e-01  6.09964908e-01 -1.21992982e+00]
 [-3.04982454e-01 -2.77555756e-17 -6.09964908e-01]
 [-4.57473681e-01 -1.52491227e-01 -4.57473681e-01]
 [-6.09964908e-01 -3.04982454e-01 -3.04982454e-01]
 [ 4.57473681e-01 -4.57473681e-01 -4.57473681e-01]
 [ 6.09964908e-01 -3.04982454e-01 -6.09964908e-01]
 [ 7.62456135e-01 -1.52491227e-01 -7.62456135e-01]
 [ 9.14947362e-01  1.11022302e-16 -9.14947362e-01]
 [ 6.09964908e-01 -6.09964908e-01 -3.04982454e-01]
 [ 7.62456135e-01 -4.57473681e-01 -4.57473681e-01]
 [ 9.14947362e-01 -3.04982454e-01 -6.09964908e-01]
 [ 1.06743859e+00 -1.52491227e-01 -7.62456135e-01]
 [ 7.62456135e-01 -7.62456135e-01 -1.52491227e-01]
 [ 9.14947362e-01 -6.09964908e-01 -3.04982454e-01]
 [ 1.06743859e+00 -4.57473681e-01 -4.57473681e-01]
 [ 1.21992982e+00 -3.04982454e-01 -6.09964908e-01]
 [ 9.14947362e-01 -9.14947362e-01  0.00000000e+00]
 [ 1.06743859e+00 -7.62456135e-01 -1.52491227e-01]
 [ 1.21992982e+00 -6.09964908e-01 -3.04982454e-01]
 [ 1.37242104e+00 -4.57473681e-01 -4.57473681e-01]
 [ 3.04982454e-01 -6.09964908e-01 -3.04982454e-01]
 [ 4.57473681e-01 -7.62456135e-01 -1.52491227e-01]
 [ 6.09964908e-01 -9.14947362e-01 -5.55111512e-17]
 [ 7.62456135e-01 -1.06743859e+00  1.52491227e-01]
 [ 1.52491227e-01 -7.62456135e-01 -1.52491227e-01]
 [ 3.04982454e-01 -9.14947362e-01 -2.77555756e-17]
 [ 4.57473681e-01 -1.06743859e+00  1.52491227e-01]
 [ 6.09964908e-01 -1.21992982e+00  3.04982454e-01]
 [ 2.77555756e-17 -9.14947362e-01 -2.77555756e-17]
 [ 1.52491227e-01 -1.06743859e+00  1.52491227e-01]
 [ 3.04982454e-01 -1.21992982e+00  3.04982454e-01]
 [ 4.57473681e-01 -1.37242104e+00  4.57473681e-01]
 [ 3.04982454e-01 -3.04982454e-01 -6.09964908e-01]
 [ 4.57473681e-01 -1.52491227e-01 -7.62456135e-01]
 [ 6.09964908e-01  1.11022302e-16 -9.14947362e-01]
 [ 7.62456135e-01  1.52491227e-01 -1.06743859e+00]
 [ 1.52491227e-01 -4.57473681e-01 -4.57473681e-01]
 [ 5.55111512e-17 -6.09964908e-01 -3.04982454e-01]
 [-1.52491227e-01 -7.62456135e-01 -1.52491227e-01]
 [ 1.52491227e-01 -1.52491227e-01 -7.62456135e-01]
 [ 3.04982454e-01  5.55111512e-17 -9.14947362e-01]
 [ 4.57473681e-01  1.52491227e-01 -1.06743859e+00]
 [ 6.09964908e-01  3.04982454e-01 -1.21992982e+00]
 [ 1.38777878e-16 -3.04982454e-01 -6.09964908e-01]
 [-1.52491227e-01 -4.57473681e-01 -4.57473681e-01]
 [-3.04982454e-01 -6.09964908e-01 -3.04982454e-01]
 [ 1.94289029e-16  2.77555756e-17 -9.14947362e-01]
 [ 1.52491227e-01  1.52491227e-01 -1.06743859e+00]
 [ 3.04982454e-01  3.04982454e-01 -1.21992982e+00]
 [ 4.57473681e-01  4.57473681e-01 -1.37242104e+00]
 [-1.52491227e-01 -1.52491227e-01 -7.62456135e-01]
 [-3.04982454e-01 -3.04982454e-01 -6.09964908e-01]
 [-4.57473681e-01 -4.57473681e-01 -4.57473681e-01]]
max_memory 698816.464896 (MB)  blocksize 31141553
Cholesky decomposition for j2c at kpt 0
Symmetry pattern (k - [0. 0. 0.])*a= 2n pi
    make_kpt for uniq_kptji_ids [0]
kpt = [0. 0. 0.]
adapted_ji_idx = [   0    2    5    9   14   20   27   35   44   54   65   77   90  104
  119  135  152  170  189  209  230  252  275  299  324  350  377  405
  434  464  495  527  560  594  629  665  702  740  779  819  860  902
  945  989 1034 1080 1127 1175 1224 1274 1325 1377 1430 1484 1539 1595
 1652 1710 1769 1829 1890 1952 2015 2079]
memory = 319.844352
int3c2e [1/1], AO [0:32], ncol = 7021
Symmetry pattern (k + [0. 0. 0.])*a= 2n pi
    make_kpt for [0]
Cholesky decomposition for j2c at kpt 1
Symmetry pattern (k - [-0.15249123 -0.15249123  0.15249123])*a= 2n pi
    make_kpt for uniq_kptji_ids [1]
kpt = [-0.15249123 -0.15249123  0.15249123]
adapted_ji_idx = [   1    4    8   19   26   34   53   64   76  103  118  134  169  188
  208  251  274  298  349  376  404  463  494  526  593  628  664  739
  778  818  901  944  988 1079 1126 1174 1273 1324 1376 1483 1538 1594
 1709 1768 1828 1951 2014 2078]
memory = 429.748224
int3c2e [1/1], AO [0:32], ncol = 13924
Symmetry pattern (k + [-0.15249123 -0.15249123  0.15249123])*a= 2n pi
    make_kpt for [3]
kpt = [-0.45747368 -0.45747368  0.45747368]
adapted_ji_idx = [   6   32   74  132  206  296  402  524  662  816  986 1172 1374 1592
 1826 2076]
memory = 431.382528
int3c2e [1/1], AO [0:32], ncol = 13924
Cholesky decomposition for j2c at kpt 2
Symmetry pattern (k - [-0.30498245 -0.30498245  0.30498245])*a= 2n pi
    make_kpt for uniq_kptji_ids [2]
kpt = [-0.30498245 -0.30498245  0.30498245]
adapted_ji_idx = [   3    7   25   33   63   75  117  133  187  207  273  297  375  403
  493  525  627  663  777  817  943  987 1125 1173 1323 1375 1537 1593
 1767 1827 2013 2077]
memory = 1104.756736
int3c2e [1/1], AO [0:32], ncol = 13924
Symmetry pattern (k + [-0.30498245 -0.30498245  0.30498245])*a= 2n pi
    make_kpt for [2]
Cholesky decomposition for j2c at kpt 4
Symmetry pattern (k - [-0.15249123  0.15249123 -0.15249123])*a= 2n pi
    make_kpt for uniq_kptji_ids [4]
kpt = [-0.15249123  0.15249123 -0.15249123]
adapted_ji_idx = [  10   16   23   31   40   50   61   73   86  100  115  131  226  248
  271  295  320  346  373  401  430  460  491  523  698  736  775  815
  856  898  941  985 1030 1076 1123 1171 1426 1480 1535 1591 1648 1706
 1765 1825 1886 1948 2011 2075]
memory = 1230.340096
int3c2e [1/1], AO [0:32], ncol = 13924
Symmetry pattern (k + [-0.15249123  0.15249123 -0.15249123])*a= 2n pi
    make_kpt for [18]
kpt = [-0.45747368  0.45747368 -0.45747368]
adapted_ji_idx = [  78   92  107  123  422  452  483  515 1022 1068 1115 1163 1878 1940
 2003 2067]
memory = 1351.606272
int3c2e [1/1], AO [0:32], ncol = 13924
Cholesky decomposition for j2c at kpt 5
Symmetry pattern (k - [ 5.55111512e-17  3.04982454e-01 -3.04982454e-01])*a= 2n pi
    make_kpt for uniq_kptji_ids [ 5 10]
kpt = [ 5.55111512e-17  3.04982454e-01 -3.04982454e-01]
adapted_ji_idx = [  11   17   24   41   51   62   87  101  116  227  249  272  321  347
  374  431  461  492  699  737  776  857  899  942 1031 1077 1124 1427
 1481 1536 1649 1707 1766 1887 1949 2012]
memory = 1354.215424
int3c2e [1/1], AO [0:32], ncol = 13924
kpt = [-0.60996491 -0.30498245  0.30498245]
adapted_ji_idx = [  28   70  128  292  398  520  812  982 1168 1588 1822 2072]
memory = 1394.536448
int3c2e [1/1], AO [0:32], ncol = 13924
Symmetry pattern (k + [ 5.55111512e-17  3.04982454e-01 -3.04982454e-01])*a= 2n pi
    make_kpt for [21 22]
kpt = [ 2.22044605e-16  9.14947362e-01 -9.14947362e-01]
adapted_ji_idx = [  81  425 1025 1881]
memory = 1394.343936
int3c2e [1/1], AO [0:32], ncol = 13924
kpt = [-0.60996491  0.30498245 -0.30498245]
adapted_ji_idx = [  91  106  122  451  482  514 1067 1114 1162 1939 2002 2066]
memory = 1394.23744
int3c2e [1/1], AO [0:32], ncol = 13924
Cholesky decomposition for j2c at kpt 6
Symmetry pattern (k - [ 0.15249123  0.45747368 -0.45747368])*a= 2n pi
    make_kpt for uniq_kptji_ids [6 9]
kpt = [ 0.15249123  0.45747368 -0.45747368]
adapted_ji_idx = [  12   18   42   52   88  102  228  250  322  348  432  462  700  738
  858  900 1032 1078 1428 1482 1650 1708 1888 1950]
memory = 1396.224
int3c2e [1/1], AO [0:32], ncol = 13924
kpt = [-0.45747368 -0.15249123  0.15249123]
adapted_ji_idx = [  21   29   59   71  113  129  269  293  371  399  489  521  773  813
  939  983 1121 1169 1533 1589 1763 1823 2009 2073]
memory = 1401.511936
int3c2e [1/1], AO [0:32], ncol = 13924
Symmetry pattern (k + [ 0.15249123  0.45747368 -0.45747368])*a= 2n pi
    make_kpt for [20 23]
kpt = [-0.15249123  0.76245614 -0.76245614]
adapted_ji_idx = [  80   94  424  454 1024 1070 1880 1942]
memory = 1403.2896
int3c2e [1/1], AO [0:32], ncol = 13924
kpt = [-0.76245614  0.15249123 -0.15249123]
adapted_ji_idx = [ 105  121  481  513 1113 1161 2001 2065]
memory = 1403.564032
int3c2e [1/1], AO [0:32], ncol = 13924
Cholesky decomposition for j2c at kpt 7
Symmetry pattern (k - [ 0.30498245  0.60996491 -0.60996491])*a= 2n pi
    make_kpt for uniq_kptji_ids [7 8]
kpt = [ 0.30498245  0.60996491 -0.60996491]
adapted_ji_idx = [  13   43   89  229  323  433  701  859 1033 1429 1651 1889]
memory = 1402.69568
int3c2e [1/1], AO [0:32], ncol = 13924
kpt = [-3.04982454e-01 -2.77555756e-17  0.00000000e+00]
adapted_ji_idx = [  15   22   30   49   60   72   99  114  130  247  270  294  345  372
  400  459  490  522  735  774  814  897  940  984 1075 1122 1170 1479
 1534 1590 1705 1764 1824 1947 2010 2074]
memory = 1402.220544
int3c2e [1/1], AO [0:32], ncol = 13924
Symmetry pattern (k + [ 0.30498245  0.60996491 -0.60996491])*a= 2n pi
    make_kpt for [19 24]
kpt = [-0.30498245  0.60996491 -0.60996491]
adapted_ji_idx = [  79   93  108  423  453  484 1023 1069 1116 1879 1941 2004]
memory = 1406.2592
int3c2e [1/1], AO [0:32], ncol = 13924
kpt = [-9.14947362e-01 -1.11022302e-16 -2.77555756e-17]
adapted_ji_idx = [ 120  512 1160 2064]
memory = 1406.283776
int3c2e [1/1], AO [0:32], ncol = 13924
Cholesky decomposition for j2c at kpt 11
Symmetry pattern (k - [-0.30498245  0.30498245 -0.30498245])*a= 2n pi
    make_kpt for uniq_kptji_ids [11]
kpt = [-0.30498245  0.30498245 -0.30498245]
adapted_ji_idx = [  36   46   57   69   82   96  111  127  316  342  369  397  426  456
  487  519  852  894  937  981 1026 1072 1119 1167 1644 1702 1761 1821
 1882 1944 2007 2071]
memory = 1406.779392
int3c2e [1/1], AO [0:32], ncol = 13924
Symmetry pattern (k + [-0.30498245  0.30498245 -0.30498245])*a= 2n pi
    make_kpt for [11]
Cholesky decomposition for j2c at kpt 12
Symmetry pattern (k - [-0.15249123  0.45747368 -0.45747368])*a= 2n pi
    make_kpt for uniq_kptji_ids [12 17]
kpt = [-0.15249123  0.45747368 -0.45747368]
adapted_ji_idx = [  37   47   58   83   97  112  317  343  370  427  457  488  853  895
  938 1027 1073 1120 1645 1703 1762 1883 1945 2008]
memory = 1408.905216
int3c2e [1/1], AO [0:32], ncol = 13924
kpt = [-0.76245614 -0.15249123  0.15249123]
adapted_ji_idx = [  66  124  394  516  978 1164 1818 2068]
memory = 1408.9216
int3c2e [1/1], AO [0:32], ncol = 13924
Symmetry pattern (k + [-0.15249123  0.45747368 -0.45747368])*a= 2n pi
    make_kpt for [14 15]
kpt = [ 0.15249123  0.76245614 -0.76245614]
adapted_ji_idx = [  39   85  319  429  855 1029 1647 1885]
memory = 1408.196608
int3c2e [1/1], AO [0:32], ncol = 13924
kpt = [-0.45747368  0.15249123 -0.15249123]
adapted_ji_idx = [  45   56   68   95  110  126  341  368  396  455  486  518  893  936
  980 1071 1118 1166 1701 1760 1820 1943 2006 2070]
memory = 1409.118208
int3c2e [1/1], AO [0:32], ncol = 13924
Cholesky decomposition for j2c at kpt 13
Symmetry pattern (k - [ 1.11022302e-16  6.09964908e-01 -6.09964908e-01])*a= 2n pi
    make_kpt for uniq_kptji_ids [13 16]
kpt = [ 1.11022302e-16  6.09964908e-01 -6.09964908e-01]
adapted_ji_idx = [  38   48   84   98  318  344  428  458  854  896 1028 1074 1646 1704
 1884 1946]
memory = 1409.277952
int3c2e [1/1], AO [0:32], ncol = 13924
kpt = [-6.09964908e-01 -5.55111512e-17  0.00000000e+00]
adapted_ji_idx = [  55   67  109  125  367  395  485  517  935  979 1117 1165 1759 1819
 2005 2069]
memory = 1408.802816
int3c2e [1/1], AO [0:32], ncol = 13924
Symmetry pattern (k + [ 1.11022302e-16  6.09964908e-01 -6.09964908e-01])*a= 2n pi
    make_kpt for [13 16]
Cholesky decomposition for j2c at kpt 25
Symmetry pattern (k - [ 0.15249123 -0.15249123 -0.15249123])*a= 2n pi
    make_kpt for uniq_kptji_ids [25]
kpt = [ 0.15249123 -0.15249123 -0.15249123]
adapted_ji_idx = [ 136  154  173  193  214  236  259  283  308  334  361  389  418  448
  479  511  544  578  613  649  686  724  763  803  844  886  929  973
 1018 1064 1111 1159 1208 1258 1309 1361 1414 1468 1523 1579 1636 1694
 1753 1813 1874 1936 1999 2063]
memory = 1409.294336
int3c2e [1/1], AO [0:32], ncol = 13924
Symmetry pattern (k + [ 0.15249123 -0.15249123 -0.15249123])*a= 2n pi
    make_kpt for [123]
kpt = [ 0.45747368 -0.45747368 -0.45747368]
adapted_ji_idx = [1176 1226 1277 1329 1382 1436 1491 1547 1604 1662 1721 1781 1842 1904
 1967 2031]
memory = 1424.072704
int3c2e [1/1], AO [0:32], ncol = 13924
Cholesky decomposition for j2c at kpt 26
Symmetry pattern (k - [ 3.04982454e-01  2.77555756e-17 -3.04982454e-01])*a= 2n pi
    make_kpt for uniq_kptji_ids [26 49]
kpt = [ 3.04982454e-01  2.77555756e-17 -3.04982454e-01]
adapted_ji_idx = [ 137  155  174  215  237  260  309  335  362  419  449  480  545  579
  614  687  725  764  845  887  930 1019 1065 1112 1209 1259 1310 1415
 1469 1524 1637 1695 1754 1875 1937 2000]
memory = 1424.09728
int3c2e [1/1], AO [0:32], ncol = 13924
kpt = [-0.30498245 -0.60996491  0.30498245]
adapted_ji_idx = [ 190  280  386  508  646  800  970 1156 1358 1576 1810 2060]
memory = 1424.535552
int3c2e [1/1], AO [0:32], ncol = 13924
Symmetry pattern (k + [ 3.04982454e-01  2.77555756e-17 -3.04982454e-01])*a= 2n pi
    make_kpt for [126 139]
kpt = [ 9.14947362e-01  1.11022302e-16 -9.14947362e-01]
adapted_ji_idx = [1179 1385 1607 1845]
memory = 1424.556032
int3c2e [1/1], AO [0:32], ncol = 13924
kpt = [ 0.30498245 -0.60996491 -0.30498245]
adapted_ji_idx = [1225 1276 1328 1435 1490 1546 1661 1720 1780 1903 1966 2030]
memory = 1424.52736
int3c2e [1/1], AO [0:32], ncol = 13924
Cholesky decomposition for j2c at kpt 27
Symmetry pattern (k - [ 0.45747368  0.15249123 -0.45747368])*a= 2n pi
    make_kpt for uniq_kptji_ids [27 45]
kpt = [ 0.45747368  0.15249123 -0.45747368]
adapted_ji_idx = [ 138  156  216  238  310  336  420  450  546  580  688  726  846  888
 1020 1066 1210 1260 1416 1470 1638 1696 1876 1938]
memory = 1424.683008
int3c2e [1/1], AO [0:32], ncol = 13924
kpt = [-0.15249123 -0.45747368  0.15249123]
adapted_ji_idx = [ 171  191  257  281  359  387  477  509  611  647  761  801  927  971
 1109 1157 1307 1359 1521 1577 1751 1811 1997 2061]
memory = 1424.539648
int3c2e [1/1], AO [0:32], ncol = 13924
Symmetry pattern (k + [ 0.45747368  0.15249123 -0.45747368])*a= 2n pi
    make_kpt for [125 143]
kpt = [ 0.76245614 -0.15249123 -0.76245614]
adapted_ji_idx = [1178 1228 1384 1438 1606 1664 1844 1906]
memory = 1423.745024
int3c2e [1/1], AO [0:32], ncol = 13924
kpt = [ 0.15249123 -0.76245614 -0.15249123]
adapted_ji_idx = [1275 1327 1489 1545 1719 1779 1965 2029]
memory = 1424.461824
int3c2e [1/1], AO [0:32], ncol = 13924
Cholesky decomposition for j2c at kpt 28
Symmetry pattern (k - [ 0.60996491  0.30498245 -0.60996491])*a= 2n pi
    make_kpt for uniq_kptji_ids [28 41]
kpt = [ 0.60996491  0.30498245 -0.60996491]
adapted_ji_idx = [ 139  217  311  421  547  689  847 1021 1211 1417 1639 1877]
memory = 1424.654336
int3c2e [1/1], AO [0:32], ncol = 13924
kpt = [ 0.         -0.30498245  0.        ]
adapted_ji_idx = [ 153  172  192  235  258  282  333  360  388  447  478  510  577  612
  648  723  762  802  885  928  972 1063 1110 1158 1257 1308 1360 1467
 1522 1578 1693 1752 1812 1935 1998 2062]
memory = 1424.207872
int3c2e [1/1], AO [0:32], ncol = 13924
Symmetry pattern (k + [ 0.60996491  0.30498245 -0.60996491])*a= 2n pi
    make_kpt for [124 147]
kpt = [ 0.60996491 -0.30498245 -0.60996491]
adapted_ji_idx = [1177 1227 1278 1383 1437 1492 1605 1663 1722 1843 1905 1968]
memory = 1425.719296
int3c2e [1/1], AO [0:32], ncol = 13924
kpt = [ 2.77555756e-17 -9.14947362e-01 -2.77555756e-17]
adapted_ji_idx = [1326 1544 1778 2028]
memory = 1425.358848
int3c2e [1/1], AO [0:32], ncol = 13924
Cholesky decomposition for j2c at kpt 29
Symmetry pattern (k - [ 0.30498245 -0.30498245  0.        ])*a= 2n pi
    make_kpt for uniq_kptji_ids [29 67]
kpt = [ 0.30498245 -0.30498245  0.        ]
adapted_ji_idx = [ 140  158  177  197  218  240  263  287  312  338  365  393  548  582
  617  653  690  728  767  807  848  890  933  977 1212 1262 1313 1365
 1418 1472 1527 1583 1640 1698 1757 1817]
memory = 1425.83808
int3c2e [1/1], AO [0:32], ncol = 13924
kpt = [-0.30498245  0.30498245 -0.60996491]
adapted_ji_idx = [ 406  436  467  499 1006 1052 1099 1147 1862 1924 1987 2051]
memory = 1425.686528
int3c2e [1/1], AO [0:32], ncol = 13924
Symmetry pattern (k + [ 0.30498245 -0.30498245  0.        ])*a= 2n pi
    make_kpt for [135 151]
kpt = [ 0.91494736 -0.91494736  0.        ]
adapted_ji_idx = [1188 1238 1289 1341]
memory = 1425.670144
int3c2e [1/1], AO [0:32], ncol = 13924
kpt = [ 0.30498245 -0.30498245 -0.60996491]
adapted_ji_idx = [1378 1432 1487 1543 1600 1658 1717 1777 1838 1900 1963 2027]
memory = 1425.682432
int3c2e [1/1], AO [0:32], ncol = 13924
Cholesky decomposition for j2c at kpt 30
Symmetry pattern (k - [ 0.45747368 -0.15249123 -0.15249123])*a= 2n pi
    make_kpt for uniq_kptji_ids [30 50 68 73]
kpt = [ 0.45747368 -0.15249123 -0.15249123]
adapted_ji_idx = [ 141  159  178  219  241  264  313  339  366  549  583  618  691  729
  768  849  891  934 1213 1263 1314 1419 1473 1528 1641 1699 1758]
memory = 1425.87904
int3c2e [1/1], AO [0:32], ncol = 13924
kpt = [-0.15249123 -0.76245614  0.45747368]
adapted_ji_idx = [ 194  284  390  650  804  974 1362 1580 1814]
<<<<<<<<< Temporary merge branch 1
memory = 1444.196352
int3c2e [1/1], AO [0:32], ncol = 13924
kpt = [-0.15249123  0.45747368 -0.76245614]
adapted_ji_idx = [ 407  437  468 1007 1053 1100 1863 1925 1988]
memory = 1444.839424
=========
memory = 1425.73568
int3c2e [1/1], AO [0:32], ncol = 13924
kpt = [-0.15249123  0.45747368 -0.76245614]
adapted_ji_idx = [ 407  437  468 1007 1053 1100 1863 1925 1988]
memory = 1425.543168
int3c2e [1/1], AO [0:32], ncol = 13924
kpt = [-0.76245614 -0.15249123 -0.15249123]
adapted_ji_idx = [ 496 1144 2048]
memory = 1425.444864
int3c2e [1/1], AO [0:32], ncol = 13924
Symmetry pattern (k + [ 0.45747368 -0.15249123 -0.15249123])*a= 2n pi
    make_kpt for [138 142 154 155]
kpt = [ 1.37242104 -0.45747368 -0.45747368]
adapted_ji_idx = [1191]
memory = 1425.57184
int3c2e [1/1], AO [0:32], ncol = 13924
kpt = [ 0.76245614 -1.06743859  0.15249123]
adapted_ji_idx = [1237 1288 1340]
<<<<<<<<< Temporary merge branch 1
memory = 1442.586624
int3c2e [1/1], AO [0:32], ncol = 13924
kpt = [ 0.76245614  0.15249123 -1.06743859]
adapted_ji_idx = [1381 1603 1841]
memory = 1442.73408
=========
memory = 1424.707584
int3c2e [1/1], AO [0:32], ncol = 13924
kpt = [ 0.76245614  0.15249123 -1.06743859]
adapted_ji_idx = [1381 1603 1841]
memory = 1425.65376
int3c2e [1/1], AO [0:32], ncol = 13924
kpt = [ 0.15249123 -0.45747368 -0.45747368]
adapted_ji_idx = [1431 1486 1542 1657 1716 1776 1899 1962 2026]
memory = 1423.818752
int3c2e [1/1], AO [0:32], ncol = 13924
Cholesky decomposition for j2c at kpt 31
Symmetry pattern (k - [ 6.09964908e-01  5.55111512e-17 -3.04982454e-01])*a= 2n pi
    make_kpt for uniq_kptji_ids [31 46 69 72]
kpt = [ 6.09964908e-01  5.55111512e-17 -3.04982454e-01]
adapted_ji_idx = [ 142  160  220  242  314  340  550  584  692  730  850  892 1214 1264
 1420 1474 1642 1700]
memory = 1425.73568
int3c2e [1/1], AO [0:32], ncol = 13924
kpt = [-5.55111512e-17 -6.09964908e-01  3.04982454e-01]
adapted_ji_idx = [ 175  195  261  285  363  391  615  651  765  805  931  975 1311 1363
 1525 1581 1755 1815]
memory = 1425.215488
int3c2e [1/1], AO [0:32], ncol = 13924
kpt = [ 1.66533454e-16  6.09964908e-01 -9.14947362e-01]
adapted_ji_idx = [ 408  438 1008 1054 1864 1926]
memory = 1425.79712
int3c2e [1/1], AO [0:32], ncol = 13924
kpt = [-6.09964908e-01 -5.55111512e-17 -3.04982454e-01]
adapted_ji_idx = [ 465  497 1097 1145 1985 2049]
memory = 1425.698816
int3c2e [1/1], AO [0:32], ncol = 13924
Symmetry pattern (k + [ 6.09964908e-01  5.55111512e-17 -3.04982454e-01])*a= 2n pi
    make_kpt for [137 146 153 156]
kpt = [ 1.21992982 -0.60996491 -0.30498245]
adapted_ji_idx = [1190 1240]
memory = 1424.91648
int3c2e [1/1], AO [0:32], ncol = 13924
kpt = [ 0.60996491 -1.21992982  0.30498245]
adapted_ji_idx = [1287 1339]
<<<<<<<<< Temporary merge branch 1
memory = 1443.938304
int3c2e [1/1], AO [0:32], ncol = 13924
kpt = [ 6.09964908e-01  1.11022302e-16 -9.14947362e-01]
adapted_ji_idx = [1380 1434 1602 1660 1840 1902]
memory = 1444.982784
=========
memory = 1425.5104
int3c2e [1/1], AO [0:32], ncol = 13924
kpt = [ 6.09964908e-01  1.11022302e-16 -9.14947362e-01]
adapted_ji_idx = [1380 1434 1602 1660 1840 1902]
memory = 1424.900096
int3c2e [1/1], AO [0:32], ncol = 13924
kpt = [ 5.55111512e-17 -6.09964908e-01 -3.04982454e-01]
adapted_ji_idx = [1485 1541 1715 1775 1961 2025]
memory = 1425.85856
int3c2e [1/1], AO [0:32], ncol = 13924
Cholesky decomposition for j2c at kpt 32
Symmetry pattern (k - [ 0.76245614  0.15249123 -0.45747368])*a= 2n pi
    make_kpt for uniq_kptji_ids [32 42 70 71]
kpt = [ 0.76245614  0.15249123 -0.45747368]
adapted_ji_idx = [ 143  221  315  551  693  851 1215 1421 1643]
memory = 1425.096704
int3c2e [1/1], AO [0:32], ncol = 13924
kpt = [ 0.15249123 -0.45747368  0.15249123]
adapted_ji_idx = [ 157  176  196  239  262  286  337  364  392  581  616  652  727  766
  806  889  932  976 1261 1312 1364 1471 1526 1582 1697 1756 1816]
memory = 1425.48992
int3c2e [1/1], AO [0:32], ncol = 13924
kpt = [ 0.15249123  0.76245614 -1.06743859]
adapted_ji_idx = [ 409 1009 1865]
memory = 1425.77664
int3c2e [1/1], AO [0:32], ncol = 13924
kpt = [-0.45747368  0.15249123 -0.45747368]
adapted_ji_idx = [ 435  466  498 1051 1098 1146 1923 1986 2050]
memory = 1424.62976
int3c2e [1/1], AO [0:32], ncol = 13924
Symmetry pattern (k + [ 0.76245614  0.15249123 -0.45747368])*a= 2n pi
    make_kpt for [136 150 152 157]
kpt = [ 1.06743859 -0.76245614 -0.15249123]
adapted_ji_idx = [1189 1239 1290]
memory = 1425.682432
int3c2e [1/1], AO [0:32], ncol = 13924
kpt = [ 0.45747368 -1.37242104  0.45747368]
adapted_ji_idx = [1338]
<<<<<<<<< Temporary merge branch 1
memory = 1448.767488
int3c2e [1/1], AO [0:32], ncol = 13924
kpt = [ 0.45747368 -0.15249123 -0.76245614]
adapted_ji_idx = [1379 1433 1488 1601 1659 1718 1839 1901 1964]
memory = 1447.989248
=========
memory = 1425.678336
int3c2e [1/1], AO [0:32], ncol = 13924
kpt = [ 0.45747368 -0.15249123 -0.76245614]
adapted_ji_idx = [1379 1433 1488 1601 1659 1718 1839 1901 1964]
memory = 1425.604608
int3c2e [1/1], AO [0:32], ncol = 13924
kpt = [-0.15249123 -0.76245614 -0.15249123]
adapted_ji_idx = [1540 1774 2024]
memory = 1425.833984
int3c2e [1/1], AO [0:32], ncol = 13924
Cholesky decomposition for j2c at kpt 33
Symmetry pattern (k - [ 0.45747368 -0.45747368  0.15249123])*a= 2n pi
    make_kpt for uniq_kptji_ids [33 60]
kpt = [ 0.45747368 -0.45747368  0.15249123]
adapted_ji_idx = [ 144  162  181  201  222  244  267  291  552  586  621  657  694  732
  771  811 1216 1266 1317 1369 1422 1476 1531 1587]
memory = 1425.907712
int3c2e [1/1], AO [0:32], ncol = 13924
kpt = [-0.15249123  0.15249123 -0.45747368]
adapted_ji_idx = [ 300  326  353  381  410  440  471  503  836  878  921  965 1010 1056
 1103 1151 1628 1686 1745 1805 1866 1928 1991 2055]
memory = 1425.833984
int3c2e [1/1], AO [0:32], ncol = 13924
Symmetry pattern (k + [ 0.45747368 -0.45747368  0.15249123])*a= 2n pi
    make_kpt for [131 158]
kpt = [ 0.76245614 -0.76245614 -0.15249123]
adapted_ji_idx = [1184 1234 1285 1337 1390 1444 1499 1555]
memory = 1425.829888
int3c2e [1/1], AO [0:32], ncol = 13924
kpt = [ 0.15249123 -0.15249123 -0.76245614]
adapted_ji_idx = [1596 1654 1713 1773 1834 1896 1959 2023]
memory = 1425.707008
int3c2e [1/1], AO [0:32], ncol = 13924
Cholesky decomposition for j2c at kpt 34
Symmetry pattern (k - [ 0.60996491 -0.30498245  0.        ])*a= 2n pi
    make_kpt for uniq_kptji_ids [34 51 61 66]
kpt = [ 0.60996491 -0.30498245  0.        ]
adapted_ji_idx = [ 145  163  182  223  245  268  553  587  622  695  733  772 1217 1267
 1318 1423 1477 1532]
memory = 1425.87904
int3c2e [1/1], AO [0:32], ncol = 13924
kpt = [-1.11022302e-16 -9.14947362e-01  6.09964908e-01]
adapted_ji_idx = [ 198  288  654  808 1366 1584]
memory = 1425.805312
int3c2e [1/1], AO [0:32], ncol = 13924
kpt = [ 1.11022302e-16  3.04982454e-01 -6.09964908e-01]
adapted_ji_idx = [ 301  327  354  411  441  472  837  879  922 1011 1057 1104 1629 1687
 1746 1867 1929 1992]
memory = 1425.588224
int3c2e [1/1], AO [0:32], ncol = 13924
kpt = [-6.09964908e-01 -3.04982454e-01 -2.77555756e-17]
adapted_ji_idx = [ 378  500  962 1148 1802 2052]
memory = 1426.415616
int3c2e [1/1], AO [0:32], ncol = 13924
Symmetry pattern (k + [ 0.60996491 -0.30498245  0.        ])*a= 2n pi
    make_kpt for [134 141 161 162]
kpt = [ 1.21992982 -0.30498245 -0.60996491]
adapted_ji_idx = [1187 1393]
memory = 1426.149376
int3c2e [1/1], AO [0:32], ncol = 13924
kpt = [ 6.09964908e-01 -9.14947362e-01 -5.55111512e-17]
adapted_ji_idx = [1233 1284 1336 1443 1498 1554]
<<<<<<<<< Temporary merge branch 1
memory = 1454.620672
int3c2e [1/1], AO [0:32], ncol = 13924
kpt = [ 0.60996491  0.30498245 -1.21992982]
adapted_ji_idx = [1599 1837]
memory = 1454.800896
=========
memory = 1426.661376
int3c2e [1/1], AO [0:32], ncol = 13924
kpt = [ 0.60996491  0.30498245 -1.21992982]
adapted_ji_idx = [1599 1837]
memory = 1426.128896
int3c2e [1/1], AO [0:32], ncol = 13924
kpt = [ 1.38777878e-16 -3.04982454e-01 -6.09964908e-01]
adapted_ji_idx = [1653 1712 1772 1895 1958 2022]
memory = 1426.341888
int3c2e [1/1], AO [0:32], ncol = 13924
Cholesky decomposition for j2c at kpt 35
Symmetry pattern (k - [ 0.76245614 -0.15249123 -0.15249123])*a= 2n pi
    make_kpt for uniq_kptji_ids [35 47 62 65]
kpt = [ 0.76245614 -0.15249123 -0.15249123]
adapted_ji_idx = [ 146  164  224  246  554  588  696  734 1218 1268 1424 1478]
memory = 1426.112512
int3c2e [1/1], AO [0:32], ncol = 13924
kpt = [ 0.15249123 -0.76245614  0.45747368]
adapted_ji_idx = [ 179  199  265  289  619  655  769  809 1315 1367 1529 1585]
<<<<<<<<< Temporary merge branch 1
memory = 1456.5376
int3c2e [1/1], AO [0:32], ncol = 13924
kpt = [ 0.15249123  0.45747368 -0.76245614]
adapted_ji_idx = [ 302  328  412  442  838  880 1012 1058 1630 1688 1868 1930]
memory = 1456.234496
=========
memory = 1427.304448
int3c2e [1/1], AO [0:32], ncol = 13924
kpt = [ 0.15249123  0.45747368 -0.76245614]
adapted_ji_idx = [ 302  328  412  442  838  880 1012 1058 1630 1688 1868 1930]
memory = 1428.64384
int3c2e [1/1], AO [0:32], ncol = 13924
kpt = [-0.45747368 -0.15249123 -0.15249123]
adapted_ji_idx = [ 351  379  469  501  919  963 1101 1149 1743 1803 1989 2053]
memory = 1429.004288
int3c2e [1/1], AO [0:32], ncol = 13924
Symmetry pattern (k + [ 0.76245614 -0.15249123 -0.15249123])*a= 2n pi
    make_kpt for [133 145 160 163]
kpt = [ 1.06743859 -0.45747368 -0.45747368]
adapted_ji_idx = [1186 1236 1392 1446]
memory = 1430.532096
int3c2e [1/1], AO [0:32], ncol = 13924
kpt = [ 0.45747368 -1.06743859  0.15249123]
adapted_ji_idx = [1283 1335 1497 1553]
<<<<<<<<< Temporary merge branch 1
memory = 1456.7424
int3c2e [1/1], AO [0:32], ncol = 13924
kpt = [ 0.45747368  0.15249123 -1.06743859]
adapted_ji_idx = [1598 1656 1836 1898]
memory = 1455.792128
=========
memory = 1429.536768
int3c2e [1/1], AO [0:32], ncol = 13924
kpt = [ 0.45747368  0.15249123 -1.06743859]
adapted_ji_idx = [1598 1656 1836 1898]
memory = 1429.950464
int3c2e [1/1], AO [0:32], ncol = 13924
kpt = [-0.15249123 -0.45747368 -0.45747368]
adapted_ji_idx = [1711 1771 1957 2021]
memory = 1429.700608
int3c2e [1/1], AO [0:32], ncol = 13924
Cholesky decomposition for j2c at kpt 36
Symmetry pattern (k - [ 9.14947362e-01  8.32667268e-17 -3.04982454e-01])*a= 2n pi
    make_kpt for uniq_kptji_ids [36 43 63 64]
kpt = [ 9.14947362e-01  8.32667268e-17 -3.04982454e-01]
adapted_ji_idx = [ 147  225  555  697 1219 1425]
memory = 1432.117248
int3c2e [1/1], AO [0:32], ncol = 13924
kpt = [ 0.30498245 -0.60996491  0.30498245]
adapted_ji_idx = [ 161  180  200  243  266  290  585  620  656  731  770  810 1265 1316
 1368 1475 1530 1586]
memory = 1431.281664
int3c2e [1/1], AO [0:32], ncol = 13924
kpt = [ 0.30498245  0.60996491 -0.91494736]
adapted_ji_idx = [ 303  413  839 1013 1631 1869]
memory = 1432.8832
int3c2e [1/1], AO [0:32], ncol = 13924
kpt = [-3.04982454e-01 -2.77555756e-17 -3.04982454e-01]
adapted_ji_idx = [ 325  352  380  439  470  502  877  920  964 1055 1102 1150 1685 1744
 1804 1927 1990 2054]
memory = 1433.35424
int3c2e [1/1], AO [0:32], ncol = 13924
Symmetry pattern (k + [ 9.14947362e-01  8.32667268e-17 -3.04982454e-01])*a= 2n pi
    make_kpt for [132 149 159 164]
kpt = [ 0.91494736 -0.60996491 -0.30498245]
adapted_ji_idx = [1185 1235 1286 1391 1445 1500]
memory = 1434.320896
int3c2e [1/1], AO [0:32], ncol = 13924
kpt = [ 0.30498245 -1.21992982  0.30498245]
adapted_ji_idx = [1334 1552]
<<<<<<<<< Temporary merge branch 1
memory = 1459.56864
int3c2e [1/1], AO [0:32], ncol = 13924
kpt = [ 3.04982454e-01  5.55111512e-17 -9.14947362e-01]
adapted_ji_idx = [1597 1655 1714 1835 1897 1960]
memory = 1458.262016
=========
memory = 1434.324992
int3c2e [1/1], AO [0:32], ncol = 13924
kpt = [ 3.04982454e-01  5.55111512e-17 -9.14947362e-01]
adapted_ji_idx = [1597 1655 1714 1835 1897 1960]
memory = 1434.202112
int3c2e [1/1], AO [0:32], ncol = 13924
kpt = [-0.30498245 -0.60996491 -0.30498245]
adapted_ji_idx = [1770 2020]
memory = 1433.104384
int3c2e [1/1], AO [0:32], ncol = 13924
Cholesky decomposition for j2c at kpt 37
Symmetry pattern (k - [ 0.60996491 -0.60996491  0.30498245])*a= 2n pi
    make_kpt for uniq_kptji_ids [37 53]
kpt = [ 0.60996491 -0.60996491  0.30498245]
adapted_ji_idx = [ 148  166  185  205  556  590  625  661 1220 1270 1321 1373]
memory = 1434.021888
int3c2e [1/1], AO [0:32], ncol = 13924
kpt = [ 5.55111512e-17  0.00000000e+00 -3.04982454e-01]
adapted_ji_idx = [ 210  232  255  279  304  330  357  385  414  444  475  507  682  720
  759  799  840  882  925  969 1014 1060 1107 1155 1410 1464 1519 1575
 1632 1690 1749 1809 1870 1932 1995 2059]
memory = 1434.804224
int3c2e [1/1], AO [0:32], ncol = 13924
Symmetry pattern (k + [ 0.60996491 -0.60996491  0.30498245])*a= 2n pi
    make_kpt for [127 165]
kpt = [ 0.60996491 -0.60996491 -0.30498245]
adapted_ji_idx = [1180 1230 1281 1333 1386 1440 1495 1551 1608 1666 1725 1785]
memory = 1434.980352
int3c2e [1/1], AO [0:32], ncol = 13924
kpt = [ 1.94289029e-16  2.77555756e-17 -9.14947362e-01]
adapted_ji_idx = [1830 1892 1955 2019]
memory = 1434.996736
int3c2e [1/1], AO [0:32], ncol = 13924
Cholesky decomposition for j2c at kpt 38
Symmetry pattern (k - [ 0.76245614 -0.45747368  0.15249123])*a= 2n pi
    make_kpt for uniq_kptji_ids [38 52 54 59]
kpt = [ 0.76245614 -0.45747368  0.15249123]
adapted_ji_idx = [ 149  167  186  557  591  626 1221 1271 1322]
memory = 1435.275264
int3c2e [1/1], AO [0:32], ncol = 13924
kpt = [ 0.15249123 -1.06743859  0.76245614]
adapted_ji_idx = [ 202  658 1370]
memory = 1434.238976
int3c2e [1/1], AO [0:32], ncol = 13924
kpt = [ 0.15249123  0.15249123 -0.45747368]
adapted_ji_idx = [ 211  233  256  305  331  358  415  445  476  683  721  760  841  883
  926 1015 1061 1108 1411 1465 1520 1633 1691 1750 1871 1933 1996]
memory = 1433.911296
int3c2e [1/1], AO [0:32], ncol = 13924
kpt = [-0.45747368 -0.45747368  0.15249123]
adapted_ji_idx = [ 276  382  504  796  966 1152 1572 1806 2056]
memory = 1437.741056
int3c2e [1/1], AO [0:32], ncol = 13924
Symmetry pattern (k + [ 0.76245614 -0.45747368  0.15249123])*a= 2n pi
    make_kpt for [130 140 168 169]
kpt = [ 1.06743859 -0.15249123 -0.76245614]
adapted_ji_idx = [1183 1389 1611]
memory = 1438.199808
int3c2e [1/1], AO [0:32], ncol = 13924
kpt = [ 0.45747368 -0.76245614 -0.15249123]
adapted_ji_idx = [1229 1280 1332 1439 1494 1550 1665 1724 1784]
<<<<<<<<< Temporary merge branch 1
memory = 1460.727808
int3c2e [1/1], AO [0:32], ncol = 13924
kpt = [ 0.45747368  0.45747368 -1.37242104]
adapted_ji_idx = [1833]
memory = 1461.121024
=========
memory = 1438.089216
int3c2e [1/1], AO [0:32], ncol = 13924
kpt = [ 0.45747368  0.45747368 -1.37242104]
adapted_ji_idx = [1833]
memory = 1437.32736
int3c2e [1/1], AO [0:32], ncol = 13924
kpt = [-0.15249123 -0.15249123 -0.76245614]
adapted_ji_idx = [1891 1954 2018]
memory = 1437.782016
int3c2e [1/1], AO [0:32], ncol = 13924
Cholesky decomposition for j2c at kpt 39
Symmetry pattern (k - [ 9.14947362e-01 -3.04982454e-01  2.77555756e-17])*a= 2n pi
    make_kpt for uniq_kptji_ids [39 48 55 58]
kpt = [ 9.14947362e-01 -3.04982454e-01  2.77555756e-17]
adapted_ji_idx = [ 150  168  558  592 1222 1272]
memory = 1438.810112
int3c2e [1/1], AO [0:32], ncol = 13924
kpt = [ 0.30498245 -0.91494736  0.60996491]
adapted_ji_idx = [ 183  203  623  659 1319 1371]
memory = 1437.908992
int3c2e [1/1], AO [0:32], ncol = 13924
kpt = [ 0.30498245  0.30498245 -0.60996491]
adapted_ji_idx = [ 212  234  306  332  416  446  684  722  842  884 1016 1062 1412 1466
 1634 1692 1872 1934]
memory = 1438.687232
int3c2e [1/1], AO [0:32], ncol = 13924
kpt = [-0.30498245 -0.30498245  0.        ]
adapted_ji_idx = [ 253  277  355  383  473  505  757  797  923  967 1105 1153 1517 1573
 1747 1807 1993 2057]
memory = 1440.079872
int3c2e [1/1], AO [0:32], ncol = 13924
Symmetry pattern (k + [ 9.14947362e-01 -3.04982454e-01  2.77555756e-17])*a= 2n pi
    make_kpt for [129 144 167 170]
kpt = [ 0.91494736 -0.30498245 -0.60996491]
adapted_ji_idx = [1182 1232 1388 1442 1610 1668]
memory = 1440.833536
int3c2e [1/1], AO [0:32], ncol = 13924
kpt = [ 3.04982454e-01 -9.14947362e-01 -2.77555756e-17]
adapted_ji_idx = [1279 1331 1493 1549 1723 1783]
<<<<<<<<< Temporary merge branch 1
memory = 1462.792192
int3c2e [1/1], AO [0:32], ncol = 13924
kpt = [ 0.30498245  0.30498245 -1.21992982]
adapted_ji_idx = [1832 1894]
memory = 1462.419456
=========
memory = 1440.54272
int3c2e [1/1], AO [0:32], ncol = 13924
kpt = [ 0.30498245  0.30498245 -1.21992982]
adapted_ji_idx = [1832 1894]
memory = 1439.6416
int3c2e [1/1], AO [0:32], ncol = 13924
kpt = [-0.30498245 -0.30498245 -0.60996491]
adapted_ji_idx = [1953 2017]
memory = 1440.223232
int3c2e [1/1], AO [0:32], ncol = 13924
Cholesky decomposition for j2c at kpt 40
Symmetry pattern (k - [ 1.06743859 -0.15249123 -0.15249123])*a= 2n pi
    make_kpt for uniq_kptji_ids [40 44 56 57]
kpt = [ 1.06743859 -0.15249123 -0.15249123]
adapted_ji_idx = [ 151  559 1223]
memory = 1440.649216
int3c2e [1/1], AO [0:32], ncol = 13924
kpt = [ 0.45747368 -0.76245614  0.45747368]
adapted_ji_idx = [ 165  184  204  589  624  660 1269 1320 1372]
memory = 1439.82592
int3c2e [1/1], AO [0:32], ncol = 13924
kpt = [ 0.45747368  0.45747368 -0.76245614]
adapted_ji_idx = [ 213  307  417  685  843 1017 1413 1635 1873]
memory = 1440.74752
int3c2e [1/1], AO [0:32], ncol = 13924
kpt = [-0.15249123 -0.15249123 -0.15249123]
adapted_ji_idx = [ 231  254  278  329  356  384  443  474  506  719  758  798  881  924
  968 1059 1106 1154 1463 1518 1574 1689 1748 1808 1931 1994 2058]
memory = 1441.62816
int3c2e [1/1], AO [0:32], ncol = 13924
Symmetry pattern (k + [ 1.06743859 -0.15249123 -0.15249123])*a= 2n pi
    make_kpt for [128 148 166 171]
kpt = [ 0.76245614 -0.45747368 -0.45747368]
adapted_ji_idx = [1181 1231 1282 1387 1441 1496 1609 1667 1726]
memory = 1441.652736
int3c2e [1/1], AO [0:32], ncol = 13924
kpt = [ 0.15249123 -1.06743859  0.15249123]
adapted_ji_idx = [1330 1548 1782]
<<<<<<<<< Temporary merge branch 1
memory = 1461.587968
int3c2e [1/1], AO [0:32], ncol = 13924
kpt = [ 0.15249123  0.15249123 -1.06743859]
adapted_ji_idx = [1831 1893 1956]
memory = 1460.44928
=========
memory = 1442.279424
int3c2e [1/1], AO [0:32], ncol = 13924
kpt = [ 0.15249123  0.15249123 -1.06743859]
adapted_ji_idx = [1831 1893 1956]
memory = 1442.402304
int3c2e [1/1], AO [0:32], ncol = 13924
kpt = [-0.45747368 -0.45747368 -0.45747368]
adapted_ji_idx = [2016]
memory = 1442.414592
int3c2e [1/1], AO [0:32], ncol = 13924
Cholesky decomposition for j2c at kpt 74
Symmetry pattern (k - [ 0.30498245 -0.30498245 -0.30498245])*a= 2n pi
    make_kpt for uniq_kptji_ids [74]
kpt = [ 0.30498245 -0.30498245 -0.30498245]
adapted_ji_idx = [ 528  562  597  633  670  708  747  787  828  870  913  957 1002 1048
 1095 1143 1192 1242 1293 1345 1398 1452 1507 1563 1620 1678 1737 1797
 1858 1920 1983 2047]
memory = 1442.852864
int3c2e [1/1], AO [0:32], ncol = 13924
Symmetry pattern (k + [ 0.30498245 -0.30498245 -0.30498245])*a= 2n pi
    make_kpt for [74]
Cholesky decomposition for j2c at kpt 75
Symmetry pattern (k - [ 0.45747368 -0.15249123 -0.45747368])*a= 2n pi
    make_kpt for uniq_kptji_ids [75 98]
kpt = [ 0.45747368 -0.15249123 -0.45747368]
adapted_ji_idx = [ 529  563  598  671  709  748  829  871  914 1003 1049 1096 1193 1243
 1294 1399 1453 1508 1621 1679 1738 1859 1921 1984]
memory = 1444.610048
int3c2e [1/1], AO [0:32], ncol = 13924
kpt = [-0.15249123 -0.76245614  0.15249123]
adapted_ji_idx = [ 630  784  954 1140 1342 1560 1794 2044]
memory = 1445.371904
int3c2e [1/1], AO [0:32], ncol = 13924
Symmetry pattern (k + [ 0.45747368 -0.15249123 -0.45747368])*a= 2n pi
    make_kpt for [77 90]
kpt = [ 0.76245614  0.15249123 -0.76245614]
adapted_ji_idx = [ 531  673  831 1005 1195 1401 1623 1861]
memory = 1445.244928
int3c2e [1/1], AO [0:32], ncol = 13924
kpt = [ 0.15249123 -0.45747368 -0.15249123]
adapted_ji_idx = [ 561  596  632  707  746  786  869  912  956 1047 1094 1142 1241 1292
 1344 1451 1506 1562 1677 1736 1796 1919 1982 2046]
memory = 1445.494784
int3c2e [1/1], AO [0:32], ncol = 13924
Cholesky decomposition for j2c at kpt 76
Symmetry pattern (k - [ 6.09964908e-01  5.55111512e-17 -6.09964908e-01])*a= 2n pi
    make_kpt for uniq_kptji_ids [76 94]
kpt = [ 6.09964908e-01  5.55111512e-17 -6.09964908e-01]
adapted_ji_idx = [ 530  564  672  710  830  872 1004 1050 1194 1244 1400 1454 1622 1680
 1860 1922]
memory = 1446.93248
int3c2e [1/1], AO [0:32], ncol = 13924
kpt = [ 0.         -0.60996491  0.        ]
adapted_ji_idx = [ 595  631  745  785  911  955 1093 1141 1291 1343 1505 1561 1735 1795
 1981 2045]
memory = 1447.661568
int3c2e [1/1], AO [0:32], ncol = 13924
Symmetry pattern (k + [ 6.09964908e-01  5.55111512e-17 -6.09964908e-01])*a= 2n pi
    make_kpt for [76 94]
Cholesky decomposition for j2c at kpt 78
Symmetry pattern (k - [ 0.45747368 -0.45747368 -0.15249123])*a= 2n pi
    make_kpt for uniq_kptji_ids [ 78 116]
kpt = [ 0.45747368 -0.45747368 -0.15249123]
adapted_ji_idx = [ 532  566  601  637  674  712  751  791  832  874  917  961 1196 1246
 1297 1349 1402 1456 1511 1567 1624 1682 1741 1801]
memory = 1448.79616
int3c2e [1/1], AO [0:32], ncol = 13924
kpt = [-0.15249123  0.15249123 -0.76245614]
adapted_ji_idx = [ 990 1036 1083 1131 1846 1908 1971 2035]
memory = 1447.538688
int3c2e [1/1], AO [0:32], ncol = 13924
Symmetry pattern (k + [ 0.45747368 -0.45747368 -0.15249123])*a= 2n pi
    make_kpt for [ 86 102]
kpt = [ 0.76245614 -0.76245614  0.15249123]
adapted_ji_idx = [ 540  574  609  645 1204 1254 1305 1357]
memory = 1449.910272
int3c2e [1/1], AO [0:32], ncol = 13924
kpt = [ 0.15249123 -0.15249123 -0.45747368]
adapted_ji_idx = [ 666  704  743  783  824  866  909  953  998 1044 1091 1139 1394 1448
 1503 1559 1616 1674 1733 1793 1854 1916 1979 2043]
memory = 1450.00448
int3c2e [1/1], AO [0:32], ncol = 13924
Cholesky decomposition for j2c at kpt 79
Symmetry pattern (k - [ 0.60996491 -0.30498245 -0.30498245])*a= 2n pi
    make_kpt for uniq_kptji_ids [ 79  99 117 122]
kpt = [ 0.60996491 -0.30498245 -0.30498245]
adapted_ji_idx = [ 533  567  602  675  713  752  833  875  918 1197 1247 1298 1403 1457
 1512 1625 1683 1742]
memory = 1451.33568
int3c2e [1/1], AO [0:32], ncol = 13924
kpt = [-5.55111512e-17 -9.14947362e-01  3.04982454e-01]
adapted_ji_idx = [ 634  788  958 1346 1564 1798]
<<<<<<<<< Temporary merge branch 1
memory = 1461.6576
int3c2e [1/1], AO [0:32], ncol = 13924
kpt = [ 1.66533454e-16  3.04982454e-01 -9.14947362e-01]
adapted_ji_idx = [ 991 1037 1084 1847 1909 1972]
memory = 1461.32992
=========
memory = 1451.487232
int3c2e [1/1], AO [0:32], ncol = 13924
kpt = [ 1.66533454e-16  3.04982454e-01 -9.14947362e-01]
adapted_ji_idx = [ 991 1037 1084 1847 1909 1972]
memory = 1451.925504
int3c2e [1/1], AO [0:32], ncol = 13924
kpt = [-0.60996491 -0.30498245 -0.30498245]
adapted_ji_idx = [1128 2032]
memory = 1452.367872
int3c2e [1/1], AO [0:32], ncol = 13924
Symmetry pattern (k + [ 0.60996491 -0.30498245 -0.30498245])*a= 2n pi
    make_kpt for [ 89  93 105 106]
kpt = [ 1.21992982 -0.30498245 -0.30498245]
adapted_ji_idx = [ 543 1207]
memory = 1452.212224
int3c2e [1/1], AO [0:32], ncol = 13924
kpt = [ 0.60996491 -0.91494736  0.30498245]
adapted_ji_idx = [ 573  608  644 1253 1304 1356]
memory = 1452.355584
int3c2e [1/1], AO [0:32], ncol = 13924
kpt = [ 0.60996491  0.30498245 -0.91494736]
adapted_ji_idx = [ 669  827 1001 1397 1619 1857]
memory = 1452.27776
int3c2e [1/1], AO [0:32], ncol = 13924
kpt = [ 5.55111512e-17 -3.04982454e-01 -3.04982454e-01]
adapted_ji_idx = [ 703  742  782  865  908  952 1043 1090 1138 1447 1502 1558 1673 1732
 1792 1915 1978 2042]
memory = 1452.15488
int3c2e [1/1], AO [0:32], ncol = 13924
Cholesky decomposition for j2c at kpt 80
Symmetry pattern (k - [ 0.76245614 -0.15249123 -0.45747368])*a= 2n pi
    make_kpt for uniq_kptji_ids [ 80  95 118 121]
kpt = [ 0.76245614 -0.15249123 -0.45747368]
adapted_ji_idx = [ 534  568  676  714  834  876 1198 1248 1404 1458 1626 1684]
memory = 1452.99456
int3c2e [1/1], AO [0:32], ncol = 13924
kpt = [ 0.15249123 -0.76245614  0.15249123]
adapted_ji_idx = [ 599  635  749  789  915  959 1295 1347 1509 1565 1739 1799]
<<<<<<<<< Temporary merge branch 1
memory = 1460.375552
int3c2e [1/1], AO [0:32], ncol = 13924
kpt = [ 0.15249123  0.45747368 -1.06743859]
adapted_ji_idx = [ 992 1038 1848 1910]
memory = 1461.813248
=========
memory = 1452.797952
int3c2e [1/1], AO [0:32], ncol = 13924
kpt = [ 0.15249123  0.45747368 -1.06743859]
adapted_ji_idx = [ 992 1038 1848 1910]
memory = 1453.11744
int3c2e [1/1], AO [0:32], ncol = 13924
kpt = [-0.45747368 -0.15249123 -0.45747368]
adapted_ji_idx = [1081 1129 1969 2033]
memory = 1452.736512
int3c2e [1/1], AO [0:32], ncol = 13924
Symmetry pattern (k + [ 0.76245614 -0.15249123 -0.45747368])*a= 2n pi
    make_kpt for [ 88  97 104 107]
kpt = [ 1.06743859 -0.45747368 -0.15249123]
adapted_ji_idx = [ 542  576 1206 1256]
memory = 1453.940736
int3c2e [1/1], AO [0:32], ncol = 13924
kpt = [ 0.45747368 -1.06743859  0.45747368]
adapted_ji_idx = [ 607  643 1303 1355]
<<<<<<<<< Temporary merge branch 1
memory = 1460.96128
int3c2e [1/1], AO [0:32], ncol = 13924
kpt = [ 0.45747368  0.15249123 -0.76245614]
adapted_ji_idx = [ 668  706  826  868 1000 1046 1396 1450 1618 1676 1856 1918]
memory = 1460.36736
=========
memory = 1452.793856
int3c2e [1/1], AO [0:32], ncol = 13924
kpt = [ 0.45747368  0.15249123 -0.76245614]
adapted_ji_idx = [ 668  706  826  868 1000 1046 1396 1450 1618 1676 1856 1918]
memory = 1453.850624
int3c2e [1/1], AO [0:32], ncol = 13924
kpt = [-0.15249123 -0.45747368 -0.15249123]
adapted_ji_idx = [ 741  781  907  951 1089 1137 1501 1557 1731 1791 1977 2041]
memory = 1454.473216
int3c2e [1/1], AO [0:32], ncol = 13924
Cholesky decomposition for j2c at kpt 81
Symmetry pattern (k - [ 9.14947362e-01  5.55111512e-17 -6.09964908e-01])*a= 2n pi
    make_kpt for uniq_kptji_ids [ 81  91 119 120]
kpt = [ 9.14947362e-01  5.55111512e-17 -6.09964908e-01]
adapted_ji_idx = [ 535  677  835 1199 1405 1627]
memory = 1456.111616
int3c2e [1/1], AO [0:32], ncol = 13924
kpt = [ 0.30498245 -0.60996491  0.        ]
adapted_ji_idx = [ 565  600  636  711  750  790  873  916  960 1245 1296 1348 1455 1510
 1566 1681 1740 1800]
memory = 1456.132096
int3c2e [1/1], AO [0:32], ncol = 13924
kpt = [ 0.30498245  0.60996491 -1.21992982]
adapted_ji_idx = [ 993 1849]
memory = 1456.582656
int3c2e [1/1], AO [0:32], ncol = 13924
kpt = [-3.04982454e-01 -2.77555756e-17 -6.09964908e-01]
adapted_ji_idx = [1035 1082 1130 1907 1970 2034]
memory = 1456.570368
int3c2e [1/1], AO [0:32], ncol = 13924
Symmetry pattern (k + [ 9.14947362e-01  5.55111512e-17 -6.09964908e-01])*a= 2n pi
    make_kpt for [ 87 101 103 108]
kpt = [ 9.14947362e-01 -6.09964908e-01  5.55111512e-17]
adapted_ji_idx = [ 541  575  610 1205 1255 1306]
memory = 1456.766976
int3c2e [1/1], AO [0:32], ncol = 13924
kpt = [ 0.30498245 -1.21992982  0.60996491]
adapted_ji_idx = [ 642 1354]
memory = 1455.796224
int3c2e [1/1], AO [0:32], ncol = 13924
kpt = [ 3.04982454e-01  2.77555756e-17 -6.09964908e-01]
adapted_ji_idx = [ 667  705  744  825  867  910  999 1045 1092 1395 1449 1504 1617 1675
 1734 1855 1917 1980]
memory = 1457.836032
int3c2e [1/1], AO [0:32], ncol = 13924
kpt = [-3.04982454e-01 -6.09964908e-01 -2.77555756e-17]
adapted_ji_idx = [ 780  950 1136 1556 1790 2040]
memory = 1457.60256
int3c2e [1/1], AO [0:32], ncol = 13924
Cholesky decomposition for j2c at kpt 82
Symmetry pattern (k - [ 0.60996491 -0.60996491  0.        ])*a= 2n pi
    make_kpt for uniq_kptji_ids [ 82 109]
kpt = [ 0.60996491 -0.60996491  0.        ]
adapted_ji_idx = [ 536  570  605  641  678  716  755  795 1200 1250 1301 1353 1406 1460
 1515 1571]
memory = 1458.028544
int3c2e [1/1], AO [0:32], ncol = 13924
kpt = [ 1.11022302e-16  0.00000000e+00 -6.09964908e-01]
adapted_ji_idx = [ 820  862  905  949  994 1040 1087 1135 1612 1670 1729 1789 1850 1912
 1975 2039]
memory = 1457.774592
int3c2e [1/1], AO [0:32], ncol = 13924
Symmetry pattern (k + [ 0.60996491 -0.60996491  0.        ])*a= 2n pi
    make_kpt for [ 82 109]
Cholesky decomposition for j2c at kpt 83
Symmetry pattern (k - [ 0.76245614 -0.45747368 -0.15249123])*a= 2n pi
    make_kpt for uniq_kptji_ids [ 83 100 110 115]
kpt = [ 0.76245614 -0.45747368 -0.15249123]
adapted_ji_idx = [ 537  571  606  679  717  756 1201 1251 1302 1407 1461 1516]
memory = 1458.036736
int3c2e [1/1], AO [0:32], ncol = 13924
kpt = [ 0.15249123 -1.06743859  0.45747368]
adapted_ji_idx = [ 638  792 1350 1568]
<<<<<<<<< Temporary merge branch 1
memory = 1461.43232
int3c2e [1/1], AO [0:32], ncol = 13924
kpt = [ 0.15249123  0.15249123 -0.76245614]
adapted_ji_idx = [ 821  863  906  995 1041 1088 1613 1671 1730 1851 1913 1976]
memory = 1461.190656
=========
memory = 1457.72544
int3c2e [1/1], AO [0:32], ncol = 13924
kpt = [ 0.15249123  0.15249123 -0.76245614]
adapted_ji_idx = [ 821  863  906  995 1041 1088 1613 1671 1730 1851 1913 1976]
memory = 1457.606656
int3c2e [1/1], AO [0:32], ncol = 13924
kpt = [-0.45747368 -0.45747368 -0.15249123]
adapted_ji_idx = [ 946 1132 1786 2036]
memory = 1457.754112
int3c2e [1/1], AO [0:32], ncol = 13924
Symmetry pattern (k + [ 0.76245614 -0.45747368 -0.15249123])*a= 2n pi
    make_kpt for [ 85  92 112 113]
kpt = [ 1.06743859 -0.15249123 -0.45747368]
adapted_ji_idx = [ 539  681 1203 1409]
memory = 1457.782784
int3c2e [1/1], AO [0:32], ncol = 13924
kpt = [ 0.45747368 -0.76245614  0.15249123]
adapted_ji_idx = [ 569  604  640  715  754  794 1249 1300 1352 1459 1514 1570]
<<<<<<<<< Temporary merge branch 1
memory = 1461.43232
int3c2e [1/1], AO [0:32], ncol = 13924
kpt = [ 0.45747368  0.45747368 -1.06743859]
adapted_ji_idx = [ 823  997 1615 1853]
memory = 1460.473856
=========
memory = 1456.738304
int3c2e [1/1], AO [0:32], ncol = 13924
kpt = [ 0.45747368  0.45747368 -1.06743859]
adapted_ji_idx = [ 823  997 1615 1853]
memory = 1456.943104
int3c2e [1/1], AO [0:32], ncol = 13924
kpt = [-0.15249123 -0.15249123 -0.45747368]
adapted_ji_idx = [ 861  904  948 1039 1086 1134 1669 1728 1788 1911 1974 2038]
memory = 1457.750016
int3c2e [1/1], AO [0:32], ncol = 13924
Cholesky decomposition for j2c at kpt 84
Symmetry pattern (k - [ 0.91494736 -0.30498245 -0.30498245])*a= 2n pi
    make_kpt for uniq_kptji_ids [ 84  96 111 114]
kpt = [ 0.91494736 -0.30498245 -0.30498245]
adapted_ji_idx = [ 538  572  680  718 1202 1252 1408 1462]
memory = 1457.283072
int3c2e [1/1], AO [0:32], ncol = 13924
kpt = [ 0.30498245 -0.91494736  0.30498245]
adapted_ji_idx = [ 603  639  753  793 1299 1351 1513 1569]
<<<<<<<<< Temporary merge branch 1
memory = 1461.075968
int3c2e [1/1], AO [0:32], ncol = 13924
kpt = [ 0.30498245  0.30498245 -0.91494736]
adapted_ji_idx = [ 822  864  996 1042 1614 1672 1852 1914]
memory = 1460.514816
int3c2e [1/1], AO [0:32], ncol = 13924
kpt = [-0.30498245 -0.30498245 -0.30498245]
adapted_ji_idx = [ 903  947 1085 1133 1727 1787 1973 2037]
memory = 1461.32992
int3c2e [1/1], AO [0:32], ncol = 13924
Symmetry pattern (k + [ 0.91494736 -0.30498245 -0.30498245])*a= 2n pi
    make_kpt for [ 84  96 111 114]
    CPU time for j3c  97303.63 sec, wall time   4940.86 sec
    CPU time for Init get_k_kpts  97304.35 sec, wall time   4940.88 sec
    CPU time for get_k_kpts: make_kpt ki>=kj (0,*)      7.17 sec, wall time      0.33 sec
    CPU time for get_k_kpts: make_kpt ki>=kj (1,*)     18.31 sec, wall time      0.62 sec
    CPU time for get_k_kpts: make_kpt ki>=kj (2,*)     25.42 sec, wall time      0.83 sec
    CPU time for get_k_kpts: make_kpt ki>=kj (3,*)     38.89 sec, wall time      1.24 sec
    CPU time for get_k_kpts: make_kpt ki>=kj (4,*)     47.52 sec, wall time      1.78 sec
    CPU time for get_k_kpts: make_kpt ki>=kj (5,*)     52.99 sec, wall time      1.70 sec
    CPU time for get_k_kpts: make_kpt ki>=kj (6,*)     72.13 sec, wall time      2.31 sec
    CPU time for get_k_kpts: make_kpt ki>=kj (7,*)     68.19 sec, wall time      2.19 sec
    CPU time for get_k_kpts: make_kpt ki>=kj (8,*)     94.12 sec, wall time      3.20 sec
    CPU time for get_k_kpts: make_kpt ki>=kj (9,*)     84.62 sec, wall time      2.73 sec
    CPU time for get_k_kpts: make_kpt ki>=kj (10,*)    103.25 sec, wall time      3.39 sec
    CPU time for get_k_kpts: make_kpt ki>=kj (11,*)     99.92 sec, wall time      3.16 sec
    CPU time for get_k_kpts: make_kpt ki>=kj (12,*)    120.17 sec, wall time      3.95 sec
    CPU time for get_k_kpts: make_kpt ki>=kj (13,*)    118.96 sec, wall time      3.79 sec
    CPU time for get_k_kpts: make_kpt ki>=kj (14,*)    131.37 sec, wall time      4.30 sec
    CPU time for get_k_kpts: make_kpt ki>=kj (15,*)    144.95 sec, wall time      4.62 sec
    CPU time for get_k_kpts: make_kpt ki>=kj (16,*)    106.78 sec, wall time      3.37 sec
    CPU time for get_k_kpts: make_kpt ki>=kj (17,*)    123.32 sec, wall time      4.05 sec
    CPU time for get_k_kpts: make_kpt ki>=kj (18,*)    127.61 sec, wall time      4.03 sec
    CPU time for get_k_kpts: make_kpt ki>=kj (19,*)    136.94 sec, wall time      4.31 sec
    CPU time for get_k_kpts: make_kpt ki>=kj (20,*)    145.78 sec, wall time      4.64 sec
    CPU time for get_k_kpts: make_kpt ki>=kj (21,*)    150.02 sec, wall time      4.79 sec
    CPU time for get_k_kpts: make_kpt ki>=kj (22,*)    176.95 sec, wall time      5.86 sec
    CPU time for get_k_kpts: make_kpt ki>=kj (23,*)    172.01 sec, wall time      5.45 sec
    CPU time for get_k_kpts: make_kpt ki>=kj (24,*)    179.43 sec, wall time      5.68 sec
    CPU time for get_k_kpts: make_kpt ki>=kj (25,*)    204.62 sec, wall time      6.48 sec
    CPU time for get_k_kpts: make_kpt ki>=kj (26,*)    211.62 sec, wall time      6.68 sec
    CPU time for get_k_kpts: make_kpt ki>=kj (27,*)    218.84 sec, wall time      6.97 sec
    CPU time for get_k_kpts: make_kpt ki>=kj (28,*)    222.85 sec, wall time      7.04 sec
    CPU time for get_k_kpts: make_kpt ki>=kj (29,*)    248.51 sec, wall time      7.85 sec
    CPU time for get_k_kpts: make_kpt ki>=kj (30,*)    251.68 sec, wall time      8.09 sec
    CPU time for get_k_kpts: make_kpt ki>=kj (31,*)    272.83 sec, wall time      9.07 sec
    CPU time for get_k_kpts: make_kpt ki>=kj (32,*)    219.56 sec, wall time      6.91 sec
    CPU time for get_k_kpts: make_kpt ki>=kj (33,*)    226.92 sec, wall time      7.13 sec
    CPU time for get_k_kpts: make_kpt ki>=kj (34,*)    242.84 sec, wall time      7.80 sec
    CPU time for get_k_kpts: make_kpt ki>=kj (35,*)    238.24 sec, wall time      7.51 sec
    CPU time for get_k_kpts: make_kpt ki>=kj (36,*)    239.76 sec, wall time      7.62 sec
    CPU time for get_k_kpts: make_kpt ki>=kj (37,*)    243.89 sec, wall time      7.69 sec
    CPU time for get_k_kpts: make_kpt ki>=kj (38,*)    256.29 sec, wall time      8.10 sec
    CPU time for get_k_kpts: make_kpt ki>=kj (39,*)    259.91 sec, wall time      8.21 sec
    CPU time for get_k_kpts: make_kpt ki>=kj (40,*)    279.72 sec, wall time      8.86 sec
    CPU time for get_k_kpts: make_kpt ki>=kj (41,*)    290.04 sec, wall time      9.28 sec
    CPU time for get_k_kpts: make_kpt ki>=kj (42,*)    299.33 sec, wall time      9.58 sec
    CPU time for get_k_kpts: make_kpt ki>=kj (43,*)    317.08 sec, wall time     10.09 sec
    CPU time for get_k_kpts: make_kpt ki>=kj (44,*)    318.30 sec, wall time     10.26 sec
    CPU time for get_k_kpts: make_kpt ki>=kj (45,*)    356.42 sec, wall time     11.42 sec
    CPU time for get_k_kpts: make_kpt ki>=kj (46,*)    351.68 sec, wall time     11.26 sec
    CPU time for get_k_kpts: make_kpt ki>=kj (47,*)    361.43 sec, wall time     11.79 sec
    CPU time for get_k_kpts: make_kpt ki>=kj (48,*)    300.91 sec, wall time      9.46 sec
    CPU time for get_k_kpts: make_kpt ki>=kj (49,*)    306.93 sec, wall time      9.64 sec
    CPU time for get_k_kpts: make_kpt ki>=kj (50,*)    319.05 sec, wall time     10.11 sec
    CPU time for get_k_kpts: make_kpt ki>=kj (51,*)    325.69 sec, wall time     10.25 sec
    CPU time for get_k_kpts: make_kpt ki>=kj (52,*)    335.89 sec, wall time     10.59 sec
    CPU time for get_k_kpts: make_kpt ki>=kj (53,*)    341.86 sec, wall time     10.80 sec
    CPU time for get_k_kpts: make_kpt ki>=kj (54,*)    368.43 sec, wall time     11.69 sec
    CPU time for get_k_kpts: make_kpt ki>=kj (55,*)    383.24 sec, wall time     12.32 sec
    CPU time for get_k_kpts: make_kpt ki>=kj (56,*)    421.64 sec, wall time     13.63 sec
    CPU time for get_k_kpts: make_kpt ki>=kj (57,*)    409.55 sec, wall time     13.11 sec
    CPU time for get_k_kpts: make_kpt ki>=kj (58,*)    416.88 sec, wall time     13.15 sec
    CPU time for get_k_kpts: make_kpt ki>=kj (59,*)    441.14 sec, wall time     13.95 sec
[...]
  0.97578716  0.97628803  0.99667444  1.17087006  1.18202556  1.23434179
  1.25574495  1.26138171  1.32462357  1.39698608  1.46024757  1.49868691
  1.53097322  1.59423056  1.64389395  1.67279151  1.69277728  1.77487432
  1.86322294  1.87369428  1.95126783  1.97765338  2.04570424  2.05353002
  2.10081508  2.24968655  2.29268098  2.34751074  2.38083874  2.40786605
  2.60315938  2.65172171  2.65460997  2.68833036  2.70417372  2.76351033
  2.81799894  2.84838616  2.91941268  3.1059405   3.23809396  3.39850736
  3.4343305   3.56804184  3.69213345  3.80700983  3.92413843  4.04036733
  5.81853883  5.82720331  5.97065912  5.9786752   6.07041749  8.21672324
  8.22164649  8.27058476  8.30810357  8.40441107  8.94677386 10.53801652
 10.53811665 10.5934029  11.19965867 11.40559768 11.42482292 13.74102203
 19.59598663 19.59914127 19.60088122 19.60207046 19.60585817 19.61007256
 19.610766   23.43890886 23.4517791  23.52165276 23.52892183 23.57591669
 27.79879194 27.8008157  27.80147392 27.80518106 27.80557411 27.80703267
 27.8157359  34.28298634 34.28662643 34.31003996 34.34206702 34.40245925
 36.61928874 36.6419742  36.68697676 43.35333796 43.58144662 43.62166105
 46.94307177 73.94991707]
  56 ( 0.750  0.500 -0.000)   [-7.94593239e+01 -5.80489910e+01 -7.00903379e+00 -4.90344594e+00
 -4.90344568e+00 -4.90344193e+00 -4.45997312e+00 -2.77476602e+00
 -2.77474435e+00 -2.77474185e+00 -3.52229703e-01 -9.83577750e-02
  2.04069610e-02  6.88268670e-02] [ 0.49812374  0.60919181  0.69623156  0.69892427  0.86619066  0.90060105
  0.97578713  0.97628805  0.99667439  1.1708701   1.18202559  1.23434185
  1.25574491  1.26138173  1.32462355  1.39698609  1.46024758  1.49868689
  1.53097319  1.59423054  1.64389395  1.67279148  1.69277724  1.77487433
  1.86322298  1.87369427  1.95126782  1.9776534   2.04570426  2.05353005
  2.10081507  2.24968653  2.292681    2.34751074  2.38083874  2.40786605
  2.60315939  2.65172164  2.65461001  2.68833037  2.70417374  2.76351031
  2.81799892  2.84838618  2.91941263  3.10594053  3.23809387  3.39850733
  3.43433052  3.56804182  3.69213346  3.80700977  3.92413844  4.04036731
  5.81853881  5.82720332  5.97065916  5.97867513  6.07041752  8.21672321
  8.22164655  8.27058475  8.30810355  8.40441107  8.94677386 10.53801647
 10.53811666 10.59340295 11.19965869 11.40559773 11.42482286 13.74102202
 19.59598661 19.5991413  19.60088122 19.60207047 19.60585819 19.61007255
 19.61076598 23.43890885 23.4517791  23.52165277 23.5289218  23.57591671
 27.79879192 27.80081565 27.80147398 27.80518105 27.80557411 27.80703268
 27.8157359  34.28298637 34.28662642 34.31003996 34.34206701 34.40245925
 36.61928874 36.64197417 36.68697679 43.35333798 43.58144664 43.62166101
 46.94307177 73.94991707]
  57 ( 0.750  0.500  0.250)   [-7.94593240e+01 -5.80489909e+01 -7.00903602e+00 -4.90344701e+00
 -4.90344614e+00 -4.90344304e+00 -4.45997287e+00 -2.77476454e+00
 -2.77475558e+00 -2.77475234e+00 -3.28931110e-01 -9.97438271e-02
 -7.89219224e-03  1.44354543e-02] [ 0.55652925  0.63899442  0.659044    0.67025525  0.8962271   0.92715489
  0.97253701  1.02222886  1.11494017  1.12209552  1.19332042  1.21847949
  1.2611603   1.26126969  1.29382372  1.32293106  1.43655021  1.45261261
  1.57861711  1.59149047  1.63441715  1.64265369  1.65679368  1.72003795
  1.84502742  1.8772428   1.93289182  2.08107676  2.11093065  2.12564691
  2.21765119  2.25057283  2.26674495  2.27075243  2.39788988  2.45155455
  2.59231541  2.61584478  2.65751777  2.68637419  2.71682213  2.81991919
  2.89063895  2.92743442  2.93396007  3.13090498  3.30832524  3.33540253
  3.53533035  3.64532753  3.64809656  3.77842249  3.8562197   4.13585276
  5.7819214   5.85690204  5.96680931  6.10461595  6.12188683  8.16263211
  8.27747547  8.32029945  8.3305662   8.35998335  8.85830348 10.4726414
 10.5782615  10.58936631 11.26184835 11.26529155 11.65213676 13.59871068
 19.59933492 19.59944614 19.60078217 19.60097462 19.60848923 19.61057899
 19.6108624  23.42550925 23.46601811 23.51927266 23.60448409 23.6097574
 27.79967038 27.80072523 27.80158603 27.80403746 27.80824844 27.81047423
 27.81564236 34.25017027 34.31268565 34.3355222  34.35612194 34.37019499
 36.57031608 36.67032678 36.67217187 43.40664571 43.44646062 43.88113259
 46.80306178 73.66125365]
  58 ( 0.750  0.500  0.500)   [-7.94593239e+01 -5.80489910e+01 -7.00903379e+00 -4.90344593e+00
 -4.90344568e+00 -4.90344193e+00 -4.45997312e+00 -2.77476602e+00
 -2.77474435e+00 -2.77474185e+00 -3.52229696e-01 -9.83578139e-02
  2.04069514e-02  6.88269563e-02] [ 0.49812377  0.60919176  0.69623154  0.69892429  0.86619067  0.90060103
  0.9757871   0.97628802  0.99667439  1.17087009  1.1820256   1.23434182
  1.25574494  1.26138177  1.32462355  1.39698609  1.46024758  1.49868687
  1.53097323  1.59423056  1.64389396  1.67279149  1.6927773   1.77487436
  1.86322295  1.87369425  1.95126782  1.97765342  2.04570423  2.05353004
  2.10081505  2.24968657  2.29268099  2.34751074  2.38083871  2.40786609
  2.60315939  2.65172167  2.65460998  2.68833037  2.70417374  2.7635103
  2.81799888  2.84838611  2.91941267  3.10594051  3.2380939   3.39850733
  3.43433055  3.56804182  3.69213347  3.8070098   3.92413843  4.04036729
  5.81853884  5.82720333  5.97065915  5.97867518  6.07041744  8.21672325
  8.22164656  8.27058468  8.30810355  8.40441107  8.94677384 10.53801652
 10.53811662 10.59340295 11.19965872 11.40559768 11.42482286 13.74102204
 19.59598666 19.59914127 19.60088123 19.60207046 19.60585816 19.61007254
 19.610766   23.43890887 23.45177911 23.52165277 23.52892182 23.57591668
 27.79879188 27.80081569 27.80147398 27.80518106 27.80557412 27.80703267
 27.8157359  34.28298637 34.28662643 34.31003993 34.34206703 34.40245924
 36.6192887  36.6419742  36.6869768  43.353338   43.58144663 43.62166101
 46.94307177 73.94991708]
  59 ( 0.750  0.500  0.750)   [-7.94593239e+01 -5.80489909e+01 -7.00903201e+00 -4.90344504e+00
 -4.90344501e+00 -4.90344148e+00 -4.45997373e+00 -2.77475898e+00
 -2.77474348e+00 -2.77472935e+00 -3.72228007e-01 -6.81335273e-02
  1.17378429e-02  1.04559523e-01] [ 0.54687942  0.64048258  0.66179183  0.68556429  0.71261534  0.88246441
  0.95637846  0.97954061  1.02678155  1.14948569  1.18985808  1.20339683
  1.24799854  1.33483039  1.35397494  1.44123904  1.503278    1.5273991
  1.55406667  1.55883506  1.61455368  1.6887803   1.71141359  1.81246842
  1.85897036  1.89593454  1.96326268  1.9908707   2.03388705  2.05580408
  2.05798011  2.08237095  2.25107292  2.3371181   2.45049842  2.48805732
  2.55332132  2.65272763  2.66191118  2.68836867  2.71078099  2.78508791
  2.87371724  2.87867109  2.93247333  2.99822737  3.09231166  3.51094723
  3.56897178  3.61170155  3.62353736  3.77787672  3.9151489   4.01000886
  5.80561002  5.81429069  5.95501205  5.98116133  6.04580749  8.21693918
  8.23042477  8.29963502  8.36782014  8.42846788  8.89013427 10.53758419
 10.59517698 10.6033528  11.21802285 11.33460758 11.55711392 13.67583051
 19.59608126 19.59929111 19.60010867 19.6025947  19.60728787 19.6076673
 19.6112216  23.43728792 23.4388878  23.5161377  23.52548353 23.56272416
 27.79900128 27.80111534 27.80122352 27.80396216 27.80464041 27.80601676
 27.81559666 34.28337356 34.28477452 34.33718131 34.36764856 34.39984931
 36.61857404 36.69205451 36.70179042 43.37438147 43.51827682 43.76407246
 46.94113671 73.82542206]
  60 ( 0.750  0.750 -0.000)   [-7.94593238e+01 -5.80489909e+01 -7.00902811e+00 -4.90344367e+00
 -4.90344366e+00 -4.90344096e+00 -4.45997436e+00 -2.77473376e+00
 -2.77472902e+00 -2.77472901e+00 -4.07214825e-01  1.01208722e-02
  8.29720876e-02  8.29722006e-02] [ 0.50207512  0.55937603  0.70140399  0.70140402  0.7431595   0.82478991
  0.97545312  0.98191736  0.98191737  0.99585554  1.17834631  1.17834632
  1.23794067  1.30168332  1.33139672  1.47762803  1.56379767  1.59162679
  1.59162686  1.67013813  1.67013815  1.67364841  1.71036324  1.89937295
  1.90735576  1.90735577  1.95534154  1.97829944  2.05688688  2.05688691
  2.16076903  2.16076903  2.1873845   2.26262636  2.35816287  2.37960019
  2.37960023  2.56507857  2.60704422  2.65254098  2.76565221  2.76565222
  2.77323599  2.931494    2.93149405  3.05341794  3.2207608   3.51558573
  3.55008518  3.55008519  3.73363476  3.8440443   4.03897789  4.0389779
  5.82584338  5.84516907  5.93970603  6.00212482  6.00212488  8.18438853
  8.22165825  8.35013778  8.35013782  8.40718405  8.99290936 10.58584912
 10.58584917 10.62361919 11.28155318 11.55393997 11.55394001 13.61302279
 19.59687778 19.59687782 19.59951828 19.59955911 19.60451729 19.60451729
 19.61312064 23.45157483 23.45276936 23.50031591 23.54154461 23.54154464
 27.79908064 27.79908067 27.79983801 27.80372004 27.80372004 27.80399593
 27.81553242 34.26402894 34.30395863 34.35347675 34.35347677 34.40508561
 36.71518606 36.71518609 36.71644544 43.45699394 43.75087842 43.75087844
 47.01874186 73.70333459]
  61 ( 0.750  0.750  0.250)   [-7.94593239e+01 -5.80489910e+01 -7.00903379e+00 -4.90344593e+00
 -4.90344568e+00 -4.90344193e+00 -4.45997312e+00 -2.77476602e+00
 -2.77474435e+00 -2.77474185e+00 -3.52229705e-01 -9.83577416e-02
  2.04068354e-02  6.88269641e-02] [ 0.49812378  0.60919172  0.69623159  0.69892425  0.86619069  0.90060107
  0.97578716  0.97628803  0.99667444  1.17087006  1.18202556  1.23434179
  1.25574495  1.26138171  1.32462357  1.39698608  1.46024757  1.49868691
  1.53097322  1.59423057  1.64389395  1.67279151  1.69277728  1.77487433
  1.86322294  1.87369428  1.95126783  1.97765338  2.04570424  2.05353002
  2.10081508  2.24968654  2.29268099  2.34751075  2.38083875  2.40786605
  2.60315939  2.65172171  2.65460997  2.68833036  2.70417372  2.76351033
  2.81799894  2.84838616  2.91941268  3.10594053  3.23809393  3.39850736
  3.4343305   3.56804184  3.69213345  3.80700982  3.92413843  4.04036733
  5.81853883  5.82720331  5.97065912  5.9786752   6.07041749  8.21672324
  8.22164649  8.27058476  8.30810357  8.40441107  8.94677386 10.53801652
 10.53811665 10.5934029  11.19965867 11.40559768 11.42482292 13.74102203
 19.59598663 19.59914127 19.60088122 19.60207046 19.60585817 19.61007256
 19.610766   23.43890886 23.4517791  23.52165276 23.52892183 23.57591669
 27.79879194 27.8008157  27.80147392 27.80518106 27.80557411 27.80703267
 27.8157359  34.28298634 34.28662643 34.31003996 34.34206702 34.40245925
 36.61928874 36.6419742  36.68697676 43.35333797 43.58144662 43.62166105
 46.94307177 73.94991707]
  62 ( 0.750  0.750  0.500)   [-7.94593239e+01 -5.80489909e+01 -7.00903201e+00 -4.90344504e+00
 -4.90344501e+00 -4.90344148e+00 -4.45997373e+00 -2.77475898e+00
 -2.77474348e+00 -2.77472935e+00 -3.72228007e-01 -6.81335273e-02
  1.17378428e-02  1.04559523e-01] [ 0.54687942  0.64048258  0.66179183  0.68556429  0.71261534  0.88246441
  0.95637846  0.97954061  1.02678155  1.14948569  1.18985808  1.20339683
  1.24799854  1.33483039  1.35397494  1.44123904  1.503278    1.5273991
  1.55406666  1.55883506  1.61455368  1.68878029  1.71141359  1.81246842
  1.85897036  1.89593454  1.96326268  1.9908707   2.03388705  2.05580408
  2.05798011  2.08237094  2.25107291  2.3371181   2.45049841  2.4880573
  2.55332132  2.65272763  2.66191118  2.68836867  2.71078099  2.7850879
  2.8737172   2.87867109  2.93247333  2.99822722  3.09231166  3.51094723
  3.56897178  3.61170155  3.62353734  3.77787672  3.9151489   4.01000885
  5.80561002  5.81429068  5.95501205  5.98116133  6.04580749  8.21693918
  8.23042477  8.29963501  8.36782013  8.42846788  8.89013427 10.53758419
 10.59517698 10.6033528  11.21802285 11.33460758 11.55711391 13.67583051
 19.59608126 19.59929111 19.60010867 19.6025947  19.60728787 19.6076673
 19.6112216  23.43728792 23.4388878  23.5161377  23.52548353 23.56272416
 27.79900128 27.80111534 27.80122352 27.80396216 27.80464041 27.80601675
 27.81559666 34.28337356 34.28477452 34.33718131 34.36764856 34.39984931
 36.61857404 36.69205451 36.70179042 43.37438147 43.51827682 43.76407246
 46.94113671 73.82542206]
  63 ( 0.750  0.750  0.750)   [-7.94593237e+01 -5.80489908e+01 -7.00902581e+00 -4.90344250e+00
 -4.90344250e+00 -4.90343979e+00 -4.45997506e+00 -2.77473819e+00
 -2.77471596e+00 -2.77471596e+00 -4.19006195e-01 -5.67877377e-03
  1.23731718e-01  1.23731718e-01] [ 0.53510495  0.61006962  0.61006962  0.69360135  0.74569486  0.74569486
  0.82044553  0.97529149  1.06038138  1.06038139  1.19857835  1.19857835
  1.21200071  1.29331078  1.47424853  1.47424853  1.56121555  1.56121555
  1.6235042   1.66984413  1.69309485  1.76509177  1.76509177  1.83546354
  1.83546355  1.88430049  1.88430049  2.01691422  2.05390414  2.05390415
  2.12853506  2.25331769  2.26844433  2.26844434  2.42660375  2.44696656
  2.44696656  2.47074193  2.59039217  2.66481123  2.66481124  2.7568868
  2.75688681  2.88161767  2.97268932  2.98660698  2.98660699  3.50851477
  3.57092892  3.57092892  3.810344    3.9056258   3.90562581  4.01071339
  5.8539758   5.85397581  5.95231742  5.95231742  5.98208576  8.24155109
  8.24155109  8.33398725  8.41485607  8.41485608  8.83549369 10.5887646
 10.63539265 10.63539265 11.31361112 11.45239101 11.45239101 13.67735426
 19.59576471 19.59766583 19.59766584 19.60406553 19.60406553 19.60411602
 19.61494892 23.46219957 23.46219957 23.51545791 23.51545791 23.52369887
 27.79675842 27.7995423  27.7995423  27.80178272 27.80286675 27.80286675
 27.81383014 34.29344052 34.29344052 34.38666065 34.38937823 34.38937823
 36.6828734  36.76480725 36.76480725 43.47105181 43.63994869 43.6399487
 46.75599239 73.79557333]
    CPU time for get_k_kpts: make_kpt ki>=kj (0,*)      4.00 sec, wall time      0.14 sec
    CPU time for get_k_kpts: make_kpt ki>=kj (1,*)     22.33 sec, wall time      0.71 sec
    CPU time for get_k_kpts: make_kpt ki>=kj (2,*)     22.88 sec, wall time      0.73 sec
    CPU time for get_k_kpts: make_kpt ki>=kj (3,*)     27.15 sec, wall time      0.85 sec
    CPU time for get_k_kpts: make_kpt ki>=kj (4,*)     34.12 sec, wall time      1.07 sec
    CPU time for get_k_kpts: make_kpt ki>=kj (5,*)     40.39 sec, wall time      1.27 sec
    CPU time for get_k_kpts: make_kpt ki>=kj (6,*)     45.47 sec, wall time      1.43 sec
    CPU time for get_k_kpts: make_kpt ki>=kj (7,*)     55.69 sec, wall time      1.76 sec
    CPU time for get_k_kpts: make_kpt ki>=kj (8,*)     55.09 sec, wall time      1.74 sec
    CPU time for get_k_kpts: make_kpt ki>=kj (9,*)     62.71 sec, wall time      1.97 sec
    CPU time for get_k_kpts: make_kpt ki>=kj (10,*)     69.95 sec, wall time      2.21 sec
    CPU time for get_k_kpts: make_kpt ki>=kj (11,*)     76.55 sec, wall time      2.41 sec
    CPU time for get_k_kpts: make_kpt ki>=kj (12,*)     77.09 sec, wall time      2.45 sec
    CPU time for get_k_kpts: make_kpt ki>=kj (13,*)     87.86 sec, wall time      2.76 sec
    CPU time for get_k_kpts: make_kpt ki>=kj (14,*)     93.96 sec, wall time      2.97 sec
    CPU time for get_k_kpts: make_kpt ki>=kj (15,*)    102.76 sec, wall time      3.23 sec
    CPU time for get_k_kpts: make_kpt ki>=kj (16,*)    105.85 sec, wall time      3.33 sec
    CPU time for get_k_kpts: make_kpt ki>=kj (17,*)    113.48 sec, wall time      3.59 sec
    CPU time for get_k_kpts: make_kpt ki>=kj (18,*)    121.82 sec, wall time      3.83 sec
    CPU time for get_k_kpts: make_kpt ki>=kj (19,*)    133.43 sec, wall time      4.26 sec
    CPU time for get_k_kpts: make_kpt ki>=kj (20,*)    136.01 sec, wall time      4.29 sec
    CPU time for get_k_kpts: make_kpt ki>=kj (21,*)    135.01 sec, wall time      4.25 sec
    CPU time for get_k_kpts: make_kpt ki>=kj (22,*)    147.14 sec, wall time      4.68 sec
    CPU time for get_k_kpts: make_kpt ki>=kj (23,*)    151.84 sec, wall time      4.78 sec
    CPU time for get_k_kpts: make_kpt ki>=kj (24,*)    157.54 sec, wall time      4.95 sec
    CPU time for get_k_kpts: make_kpt ki>=kj (25,*)    161.03 sec, wall time      5.05 sec
    CPU time for get_k_kpts: make_kpt ki>=kj (26,*)    168.06 sec, wall time      5.28 sec
    CPU time for get_k_kpts: make_kpt ki>=kj (27,*)    171.66 sec, wall time      5.40 sec
    CPU time for get_k_kpts: make_kpt ki>=kj (28,*)    179.49 sec, wall time      5.64 sec
    CPU time for get_k_kpts: make_kpt ki>=kj (29,*)    183.34 sec, wall time      5.75 sec
    CPU time for get_k_kpts: make_kpt ki>=kj (30,*)    191.33 sec, wall time      6.01 sec
    CPU time for get_k_kpts: make_kpt ki>=kj (31,*)    191.62 sec, wall time      6.02 sec
    CPU time for get_k_kpts: make_kpt ki>=kj (32,*)    197.79 sec, wall time      6.25 sec
    CPU time for get_k_kpts: make_kpt ki>=kj (33,*)    208.98 sec, wall time      6.57 sec
    CPU time for get_k_kpts: make_kpt ki>=kj (34,*)    216.48 sec, wall time      6.81 sec
    CPU time for get_k_kpts: make_kpt ki>=kj (35,*)    212.60 sec, wall time      6.69 sec
    CPU time for get_k_kpts: make_kpt ki>=kj (36,*)    226.48 sec, wall time      7.11 sec
    CPU time for get_k_kpts: make_kpt ki>=kj (37,*)    227.54 sec, wall time      7.14 sec
    CPU time for get_k_kpts: make_kpt ki>=kj (38,*)    233.37 sec, wall time      7.39 sec
    CPU time for get_k_kpts: make_kpt ki>=kj (39,*)    243.83 sec, wall time      7.68 sec
    CPU time for get_k_kpts: make_kpt ki>=kj (40,*)    281.17 sec, wall time      8.96 sec
    CPU time for get_k_kpts: make_kpt ki>=kj (41,*)    256.85 sec, wall time      8.10 sec
    CPU time for get_k_kpts: make_kpt ki>=kj (42,*)    260.22 sec, wall time      8.17 sec
    CPU time for get_k_kpts: make_kpt ki>=kj (43,*)    264.75 sec, wall time      8.35 sec
    CPU time for get_k_kpts: make_kpt ki>=kj (44,*)    287.95 sec, wall time      9.07 sec
    CPU time for get_k_kpts: make_kpt ki>=kj (45,*)    281.14 sec, wall time      8.83 sec
    CPU time for get_k_kpts: make_kpt ki>=kj (46,*)    287.76 sec, wall time      9.03 sec
    CPU time for get_k_kpts: make_kpt ki>=kj (47,*)    295.70 sec, wall time      9.31 sec
    CPU time for get_k_kpts: make_kpt ki>=kj (48,*)    294.75 sec, wall time      9.25 sec
    CPU time for get_k_kpts: make_kpt ki>=kj (49,*)    296.38 sec, wall time      9.35 sec
    CPU time for get_k_kpts: make_kpt ki>=kj (50,*)    316.79 sec, wall time      9.95 sec
    CPU time for get_k_kpts: make_kpt ki>=kj (51,*)    333.88 sec, wall time     10.49 sec
    CPU time for get_k_kpts: make_kpt ki>=kj (52,*)    338.05 sec, wall time     10.62 sec
    CPU time for get_k_kpts: make_kpt ki>=kj (53,*)    350.51 sec, wall time     11.09 sec
    CPU time for get_k_kpts: make_kpt ki>=kj (54,*)    352.82 sec, wall time     11.09 sec
    CPU time for get_k_kpts: make_kpt ki>=kj (55,*)    360.86 sec, wall time     11.36 sec
    CPU time for get_k_kpts: make_kpt ki>=kj (56,*)    362.55 sec, wall time     11.40 sec
    CPU time for get_k_kpts: make_kpt ki>=kj (57,*)    371.15 sec, wall time     11.68 sec
    CPU time for get_k_kpts: make_kpt ki>=kj (58,*)    375.31 sec, wall time     11.79 sec
    CPU time for get_k_kpts: make_kpt ki>=kj (59,*)    381.18 sec, wall time     11.99 sec
    CPU time for get_k_kpts: make_kpt ki>=kj (60,*)    389.16 sec, wall time     12.22 sec
    CPU time for get_k_kpts: make_kpt ki>=kj (61,*)    375.45 sec, wall time     11.84 sec
    CPU time for get_k_kpts: make_kpt ki>=kj (62,*)    384.47 sec, wall time     12.09 sec
    CPU time for get_k_kpts: make_kpt ki>=kj (63,*)    405.64 sec, wall time     12.84 sec
Monkhorst pack size [4 4 4] ew_eta 1.0426769913124163 ew_cut 6.741483201914274
Ewald components = 0, -0.588350115614293, 0.532713427173553
    CPU time for get_j pass 1    162.45 sec, wall time      5.37 sec
    CPU time for get_j pass 2      9.52 sec, wall time      3.38 sec
    CPU time for vj and vk  13177.75 sec, wall time    418.35 sec
Ewald components = 1.25967104982813e-135, -881.045459580493, 778.181077139905
E1 = (-615.2152607832152-1.7530072394497665e-15j)  E_coul = (135.28045655014378-1.85908829080974e-16j)
Extra cycle  E= -582.799186673659  delta_E= -1.93e-10  |g|= 7.06e-05  |ddm|= 0.000852
    CPU time for scf_cycle 221514.91 sec, wall time   8591.34 sec
    CPU time for SCF 221515.03 sec, wall time   8591.38 sec
converged SCF energy = -582.799186673659
