#INFO: **** input file is /burg/ccce/users/eav2136/projects/core_level_spectroscopy/01_peommp2_cbe/meanfield.py ****
#!/usr/bin/env python
import json
from pyscf.pbc import gto, scf
from pyscf.pbc.tools import lattice, pyscf_ase
from pyscf.pbc.scf import chkfile
from fileutils import load, dump
import sys

material = load("data/{}".format(sys.argv[1]))
# Create Cell
cell = gto.Cell()
ase_atom = lattice.get_ase_atom(material["formula"])
cell.atom = pyscf_ase.ase_atoms_to_pyscf(ase_atom)
cell.a = ase_atom.cell[:]
cell.unit = "B"
cell.basis = material["basis"]
cell.exp_to_discard = material["exp_to_discard"]
cell.verbose = 7
cell.build()

# Mean Field
kdensity = material["kdensity"]
kmesh = [kdensity, kdensity, kdensity]
kpts = cell.make_kpts(kmesh, scaled_center=material["vb_scaled_center"])
mymf = scf.KRHF(cell, kpts=kpts, exxdiv="ewald")
mymf.chkfile = "data/{}".format(material["chk"])
mymf = mymf.density_fit()
mymf.with_df._cderi_to_save = "data/{}".format(material["cderi"])
ekrhf = mymf.kernel()
convergence = mymf.converged
mymf_data = dict([("ekrhf", float(ekrhf)),
                  ("convergence", bool(convergence))])
dump(mymf_data, "data/{}".format(material["ekrhf"]))
#INFO: ******************** input file end ********************


System: uname_result(system='Linux', node='g150', release='4.18.0-193.el8.x86_64', version='#1 SMP Fri Mar 27 14:35:58 UTC 2020', machine='x86_64')  Threads 32
Python 3.10.12 (main, Jul 29 2023, 11:27:27) [GCC 13.2.0]
numpy 1.25.1  scipy 1.10.1
Date: Fri Feb  2 12:52:51 2024
PySCF version 2.0.1
PySCF path  /burg/berkelbach/users/eav2136/builds/pyscf/projected-cvs/pyscf
GIT ORIG_HEAD 0bfbc692adf3ea63b8a509210433219cd1c472a2
GIT HEAD (branch projected-cvs) e14caaa2dddc538b9be2d86f01e5b456fc92da36

[ENV] PYSCF_TMPDIR /burg/ccce/users/eav2136/projects/core_level_spectroscopy/01_peommp2_cbe/tmp
[ENV] PYSCF_MAX_MEMORY 700000
[CONFIG] DEBUG = False
[CONFIG] MAX_MEMORY = 700000
[CONFIG] TMPDIR = /burg/ccce/users/eav2136/projects/core_level_spectroscopy/01_peommp2_cbe/tmp
[CONFIG] UNIT = angstrom
[CONFIG] VERBOSE = 3
[CONFIG] conf_file = None
[INPUT] verbose = 7
[INPUT] max_memory = 700000 
[INPUT] num. atoms = 2
[INPUT] num. electrons = 28
[INPUT] charge = 0
[INPUT] spin (= nelec alpha-beta = 2S) = 0
[INPUT] symmetry False subgroup None
[INPUT] Mole.unit = B
[INPUT]  1 Al     0.000000000000   0.000000000000   0.000000000000 AA    0.000000000000   0.000000000000   0.000000000000 Bohr
[INPUT]  2 P      1.362749902239   1.362749902239   1.362749902239 AA    2.575224091510   2.575224091510   2.575224091510 Bohr
[INPUT] ---------------- BASIS SET ---------------- 
[INPUT] l, kappa, [nprim/nctr], expnt,             c_1 c_2 ...
[INPUT] P
[INPUT] 0    0    [13   /3   ]  312400            5.7696e-05 -1.56709e-05 4.30631e-06
                                46800             0.000448296 -0.000121724 3.34194e-05
                                10650             0.00234939 -0.000639672 0.000175885
                                3018              0.00978265 -0.00267426 0.00073434
                                986.8             0.0341467 -0.00949831 0.00261775
                                357.4             0.100204 -0.0289349 0.00797852
                                139.6             0.234372 -0.0745121 0.020794
                                57.63             0.382434 -0.149938 0.0424446
                                24.6              0.318088 -0.189467 0.0563436
                                10.12             0.0707788 0.036327 -0.0127358
                                4.283             -0.00181799 0.528816 -0.196495
                                1.805             0.0021618 0.519115 -0.353555
                                0.2782            0.000432297 -0.00925695 0.700912
[INPUT] 0    0    [1    /1   ]  0.6158               1
[INPUT] 0    0    [1    /1   ]  0.1055               1
[INPUT] 1    0    [7    /2   ]  504.9             0.00233728 -0.000555236
                                119.4             0.018541 -0.00445913
                                37.96             0.0849693 -0.020635
                                13.95             0.244615 -0.0617694
                                5.457             0.422766 -0.108924
                                2.177             0.368439 -0.105599
                                0.2877            -0.00379005 0.576981
[INPUT] 1    0    [1    /1   ]  0.801                1
[INPUT] 1    0    [1    /1   ]  0.09714              1
[INPUT] 2    0    [1    /1   ]  0.216                1
[INPUT] 2    0    [1    /1   ]  0.652                1
[INPUT] 3    0    [1    /1   ]  0.452                1
[INPUT] 0    0    [1    /1   ]  10.978               1
[INPUT] 0    0    [1    /1   ]  2.006                1
[INPUT] 1    0    [1    /1   ]  7.084                1
[INPUT] 1    0    [1    /1   ]  2.701                1
[INPUT] 2    0    [1    /1   ]  12.891               1
[INPUT] 2    0    [1    /1   ]  4.056                1
[INPUT] 3    0    [1    /1   ]  8.462                1
[INPUT] Al
[INPUT] 0    0    [13   /3   ]  205500            6.78836e-05 -1.76377e-05 4.07315e-06
                                30780             0.000527149 -0.000137195 3.16566e-05
                                7006              0.00276203 -0.00071891 0.000166116
                                1985              0.0114728 -0.00301146 0.000694992
                                649.1             0.0398188 -0.0106014 0.00245511
                                235               0.11504 -0.0321345 0.00744598
                                91.62             0.260887 -0.0803156 0.0188253
                                37.67             0.396386 -0.156794 0.0372772
                                15.91             0.284597 -0.168376 0.0419496
                                5.85              0.0444583 0.126879 -0.0354375
                                2.542             -0.00489838 0.561494 -0.175132
                                1.057             0.00261253 0.436613 -0.276203
                                0.1455            0.000722068 -0.0114563 0.652809
[INPUT] 0    0    [1    /1   ]  0.2931               1
[INPUT] 0    0    [1    /1   ]  0.0565               1
[INPUT] 1    0    [7    /2   ]  444.4             0.00162786 -0.000286341
                                105.1             0.0130687 -0.00242308
                                33.47             0.0612341 -0.0108658
                                12.33             0.18787 -0.0364307
                                4.869             0.360452 -0.0641074
                                1.961             0.408454 -0.0972239
                                0.1888            0.00976514 0.503448
[INPUT] 1    0    [1    /1   ]  0.7834               1
[INPUT] 1    0    [1    /1   ]  0.05557              1
[INPUT] 2    0    [1    /1   ]  0.109                1
[INPUT] 2    0    [1    /1   ]  0.333                1
[INPUT] 3    0    [1    /1   ]  0.244                1
[INPUT] 0    0    [1    /1   ]  7.488                1
[INPUT] 0    0    [1    /1   ]  1.272                1
[INPUT] 1    0    [1    /1   ]  2.202                1
[INPUT] 1    0    [1    /1   ]  5.548                1
[INPUT] 2    0    [1    /1   ]  2.634                1
[INPUT] 2    0    [1    /1   ]  8.646                1
[INPUT] 3    0    [1    /1   ]  5.686                1

Ewald components = 1.25967104982813e-135, -881.045459580493, 778.181077139905
nuclear repulsion = -102.864382440588
number of shells = 32
number of NR pGTOs = 168
number of NR cGTOs = 118
basis = ccpcvtz
ecp = {}
bas 0, expnt(s) = [2.055e+05 3.078e+04 7.006e+03 1.985e+03 6.491e+02 2.350e+02 9.162e+01
 3.767e+01 1.591e+01 5.850e+00 2.542e+00 1.057e+00 1.455e-01]
bas 1, expnt(s) = [0.2931]
bas 2, expnt(s) = [0.0565]
bas 3, expnt(s) = [4.444e+02 1.051e+02 3.347e+01 1.233e+01 4.869e+00 1.961e+00 1.888e-01]
bas 4, expnt(s) = [0.7834]
bas 5, expnt(s) = [0.05557]
bas 6, expnt(s) = [0.109]
bas 7, expnt(s) = [0.333]
bas 8, expnt(s) = [0.244]
bas 9, expnt(s) = [7.488]
bas 10, expnt(s) = [1.272]
bas 11, expnt(s) = [2.202]
bas 12, expnt(s) = [5.548]
bas 13, expnt(s) = [2.634]
bas 14, expnt(s) = [8.646]
bas 15, expnt(s) = [5.686]
bas 16, expnt(s) = [3.124e+05 4.680e+04 1.065e+04 3.018e+03 9.868e+02 3.574e+02 1.396e+02
 5.763e+01 2.460e+01 1.012e+01 4.283e+00 1.805e+00 2.782e-01]
bas 17, expnt(s) = [0.6158]
bas 18, expnt(s) = [0.1055]
bas 19, expnt(s) = [5.049e+02 1.194e+02 3.796e+01 1.395e+01 5.457e+00 2.177e+00 2.877e-01]
bas 20, expnt(s) = [0.801]
bas 21, expnt(s) = [0.09714]
bas 22, expnt(s) = [0.216]
bas 23, expnt(s) = [0.652]
bas 24, expnt(s) = [0.452]
bas 25, expnt(s) = [10.978]
bas 26, expnt(s) = [2.006]
bas 27, expnt(s) = [7.084]
bas 28, expnt(s) = [2.701]
bas 29, expnt(s) = [12.891]
bas 30, expnt(s) = [4.056]
bas 31, expnt(s) = [8.462]
CPU time:         0.93
lattice vectors  a1 [0.000000000, 5.150448183, 5.150448183]
                 a2 [5.150448183, 0.000000000, 5.150448183]
                 a3 [5.150448183, 5.150448183, 0.000000000]
dimension = 3
low_dim_ft_type = None
Cell volume = 273.253
rcut = 32.79019015615983 (nimgs = [6 6 6])
lattice sum = 1241 cells
precision = 1e-08
pseudo = None
ke_cutoff = 611678.7590065906
    = [2094 2094 2094] mesh (9181846584 PWs)


******** <class 'pyscf.pbc.scf.khf.KRHF'> ********
method = KRHF-KSCF-RHF-SCF-RHF
initial guess = minao
damping factor = 0
level_shift factor = 0
DIIS = <class 'pyscf.scf.diis.CDIIS'>
diis_start_cycle = 1
diis_space = 8
SCF conv_tol = 1e-07
SCF conv_tol_grad = None
SCF max_cycles = 50
direct_scf = True
direct_scf_tol = 1e-13
chkfile to save SCF result = data/alp_ccpcvtz_k2_Al_2p_nvir_act14.chk
max_memory 700000 MB (current use 100 MB)


******** PBC SCF flags ********
N kpts = 8
kpts = [[ 0.00000000e+00  0.00000000e+00  0.00000000e+00]
 [ 3.04982454e-01  3.04982454e-01 -3.04982454e-01]
 [ 3.04982454e-01 -3.04982454e-01  3.04982454e-01]
 [ 6.09964908e-01  5.55111512e-17  0.00000000e+00]
 [-3.04982454e-01  3.04982454e-01  3.04982454e-01]
 [ 0.00000000e+00  6.09964908e-01  0.00000000e+00]
 [-1.11022302e-16  0.00000000e+00  6.09964908e-01]
 [ 3.04982454e-01  3.04982454e-01  3.04982454e-01]]
Exchange divergence treatment (exxdiv) = ewald
Monkhorst pack size [2 2 2] ew_eta 2.0312209471041576 ew_cut 3.463973550287249
Ewald components = 0, -1.14616786107368, 1.03489448450362
    madelung (= occupied orbital energy shift) = 0.2225467531401204
    Total energy shift due to Ewald probe charge = -1/2 * Nelec*madelung = -3.11565454396
DF object = <pyscf.pbc.df.df.GDF object at 0x155553f4bfd0>
Set gradient conv threshold to 0.000316228
Big error detected in the electron number of initial guess density matrix (Ne/cell = 27.9748)!
  This can cause huge error in Fock matrix and lead to instability in SCF for low-dimensional systems.
  DM is normalized wrt the number of electrons 28.0
    CPU time for vnuc pass1: analytic int    498.94 sec, wall time     15.84 sec
    CPU time for contracting Vnuc [0:729]     67.01 sec, wall time      2.12 sec
    CPU time for contracting Vnuc     67.01 sec, wall time      2.12 sec
    CPU time for get_nuc    566.06 sec, wall time     17.97 sec


******** <class 'pyscf.pbc.df.df.GDF'> ********
mesh = [9, 9, 9] (729 PWs)
auxbasis = None
eta = 0.2
exp_to_discard = None
_cderi_to_save = data/alp_ccpcvtz_k2_Al_2p_nvir_act14_cderi.h5
len(kpts) = 8
    kpts = [[ 0.00000000e+00  0.00000000e+00  0.00000000e+00]
 [ 3.04982454e-01  3.04982454e-01 -3.04982454e-01]
 [ 3.04982454e-01 -3.04982454e-01  3.04982454e-01]
 [ 6.09964908e-01  5.55111512e-17  0.00000000e+00]
 [-3.04982454e-01  3.04982454e-01  3.04982454e-01]
 [ 0.00000000e+00  6.09964908e-01  0.00000000e+00]
 [-1.11022302e-16  0.00000000e+00  6.09964908e-01]
 [ 3.04982454e-01  3.04982454e-01  3.04982454e-01]]
Even tempered Gaussians are generated as DF auxbasis for  P Al
  ETB auxbasis for P  [[0, [13828.096, 1]], [0, [6914.048, 1]], [0, [3457.024, 1]], [0, [1728.512, 1]], [0, [864.256, 1]], [0, [432.128, 1]], [0, [216.064, 1]], [0, [108.032, 1]], [0, [54.016, 1]], [0, [27.008, 1]], [0, [13.504, 1]], [0, [6.752, 1]], [0, [3.376, 1]], [0, [1.688, 1]], [0, [0.844, 1]], [0, [0.422, 1]], [0, [0.211, 1]], [1, [3317.2271738071363, 1]], [1, [1658.6135869035681, 1]], [1, [829.3067934517841, 1]], [1, [414.65339672589204, 1]], [1, [207.32669836294602, 1]], [1, [103.66334918147301, 1]], [1, [51.831674590736505, 1]], [1, [25.915837295368252, 1]], [1, [12.957918647684126, 1]], [1, [6.478959323842063, 1]], [1, [3.2394796619210315, 1]], [1, [1.6197398309605158, 1]], [1, [0.8098699154802579, 1]], [1, [0.40493495774012894, 1]], [1, [0.20246747887006447, 1]], [2, [795.77088, 1]], [2, [397.88544, 1]], [2, [198.94272, 1]], [2, [99.47136, 1]], [2, [49.73568, 1]], [2, [24.86784, 1]], [2, [12.43392, 1]], [2, [6.21696, 1]], [2, [3.10848, 1]], [2, [1.55424, 1]], [2, [0.77712, 1]], [2, [0.38856, 1]], [2, [0.19428, 1]], [3, [148.32893611915378, 1]], [3, [74.16446805957689, 1]], [3, [37.082234029788445, 1]], [3, [18.541117014894223, 1]], [3, [9.270558507447111, 1]], [3, [4.635279253723556, 1]], [3, [2.317639626861778, 1]], [3, [1.158819813430889, 1]], [3, [0.5794099067154445, 1]], [3, [0.28970495335772223, 1]], [4, [13.824, 1]], [4, [6.912, 1]], [4, [3.456, 1]], [4, [1.728, 1]], [4, [0.864, 1]], [4, [0.432, 1]]]
  ETB auxbasis for Al  [[0, [7405.568, 1]], [0, [3702.784, 1]], [0, [1851.392, 1]], [0, [925.696, 1]], [0, [462.848, 1]], [0, [231.424, 1]], [0, [115.712, 1]], [0, [57.856, 1]], [0, [28.928, 1]], [0, [14.464, 1]], [0, [7.232, 1]], [0, [3.616, 1]], [0, [1.808, 1]], [0, [0.904, 1]], [0, [0.452, 1]], [0, [0.226, 1]], [0, [0.113, 1]], [1, [1836.0916571679966, 1]], [1, [918.0458285839983, 1]], [1, [459.02291429199914, 1]], [1, [229.51145714599957, 1]], [1, [114.75572857299979, 1]], [1, [57.37786428649989, 1]], [1, [28.688932143249946, 1]], [1, [14.344466071624973, 1]], [1, [7.172233035812487, 1]], [1, [3.5861165179062433, 1]], [1, [1.7930582589531217, 1]], [1, [0.8965291294765608, 1]], [1, [0.4482645647382804, 1]], [1, [0.2241322823691402, 1]], [1, [0.1120661411845701, 1]], [2, [455.22944, 1]], [2, [227.61472, 1]], [2, [113.80736, 1]], [2, [56.90368, 1]], [2, [28.45184, 1]], [2, [14.22592, 1]], [2, [7.11296, 1]], [2, [3.55648, 1]], [2, [1.77824, 1]], [2, [0.88912, 1]], [2, [0.44456, 1]], [2, [0.22228, 1]], [2, [0.11114, 1]], [3, [79.69542739003286, 1]], [3, [39.84771369501643, 1]], [3, [19.923856847508215, 1]], [3, [9.961928423754108, 1]], [3, [4.980964211877054, 1]], [3, [2.490482105938527, 1]], [3, [1.2452410529692635, 1]], [3, [0.6226205264846317, 1]], [3, [0.31131026324231587, 1]], [3, [0.15565513162115793, 1]], [4, [13.952, 1]], [4, [6.976, 1]], [4, [3.488, 1]], [4, [1.744, 1]], [4, [0.872, 1]], [4, [0.436, 1]], [4, [0.218, 1]]]
num shells = 123, num cGTOs = 511
Drop 0 primitive fitting functions
make aux basis, num shells = 123, num cGTOs = 511
auxcell.rcut 17.24916021658648
make compensating basis, num shells = 10, num cGTOs = 50
chgcell.rcut 11.482117703874595
    CPU time for 3c2e  42164.86 sec, wall time   1393.27 sec
Num uniq kpts 14
uniq_kpts [[ 0.00000000e+00  0.00000000e+00  0.00000000e+00]
 [-3.04982454e-01 -3.04982454e-01  3.04982454e-01]
 [-3.04982454e-01  3.04982454e-01 -3.04982454e-01]
 [ 1.11022302e-16  6.09964908e-01 -6.09964908e-01]
 [-6.09964908e-01 -5.55111512e-17  0.00000000e+00]
 [ 3.04982454e-01 -3.04982454e-01 -3.04982454e-01]
 [ 6.09964908e-01  5.55111512e-17 -6.09964908e-01]
 [ 6.09964908e-01 -6.09964908e-01  0.00000000e+00]
 [ 9.14947362e-01 -3.04982454e-01 -3.04982454e-01]
 [ 0.00000000e+00 -6.09964908e-01  0.00000000e+00]
 [ 3.04982454e-01 -9.14947362e-01  3.04982454e-01]
 [ 1.11022302e-16  0.00000000e+00 -6.09964908e-01]
 [ 3.04982454e-01  3.04982454e-01 -9.14947362e-01]
 [-3.04982454e-01 -3.04982454e-01 -3.04982454e-01]]
max_memory 698675.607552 (MB)  blocksize 31135276
Cholesky decomposition for j2c at kpt 0
Symmetry pattern (k - [0. 0. 0.])*a= 2n pi
    make_kpt for uniq_kptji_ids [0]
kpt = [0. 0. 0.]
adapted_ji_idx = [ 0  2  5  9 14 20 27 35]
memory = 1331.79392
int3c2e [1/1], AO [0:32], ncol = 7021
Symmetry pattern (k + [0. 0. 0.])*a= 2n pi
    make_kpt for [0]
Cholesky decomposition for j2c at kpt 1
Symmetry pattern (k - [-0.30498245 -0.30498245  0.30498245])*a= 2n pi
    make_kpt for uniq_kptji_ids [1]
kpt = [-0.30498245 -0.30498245  0.30498245]
adapted_ji_idx = [ 1  8 19 34]
memory = 1555.787776
int3c2e [1/1], AO [0:32], ncol = 13924
Symmetry pattern (k + [-0.30498245 -0.30498245  0.30498245])*a= 2n pi
    make_kpt for [1]
Cholesky decomposition for j2c at kpt 2
Symmetry pattern (k - [-0.30498245  0.30498245 -0.30498245])*a= 2n pi
    make_kpt for uniq_kptji_ids [2]
kpt = [-0.30498245  0.30498245 -0.30498245]
adapted_ji_idx = [ 3  7 25 33]
memory = 1641.20576
int3c2e [1/1], AO [0:32], ncol = 13924
Symmetry pattern (k + [-0.30498245  0.30498245 -0.30498245])*a= 2n pi
    make_kpt for [2]
Cholesky decomposition for j2c at kpt 3
Symmetry pattern (k - [ 1.11022302e-16  6.09964908e-01 -6.09964908e-01])*a= 2n pi
    make_kpt for uniq_kptji_ids [3 4]
kpt = [ 1.11022302e-16  6.09964908e-01 -6.09964908e-01]
adapted_ji_idx = [ 4 26]
memory = 1671.70048
int3c2e [1/1], AO [0:32], ncol = 13924
kpt = [-6.09964908e-01 -5.55111512e-17  0.00000000e+00]
adapted_ji_idx = [ 6 32]
memory = 1687.30624
int3c2e [1/1], AO [0:32], ncol = 13924
Symmetry pattern (k + [ 1.11022302e-16  6.09964908e-01 -6.09964908e-01])*a= 2n pi
    make_kpt for [3 4]
Cholesky decomposition for j2c at kpt 5
Symmetry pattern (k - [ 0.30498245 -0.30498245 -0.30498245])*a= 2n pi
    make_kpt for uniq_kptji_ids [5]
kpt = [ 0.30498245 -0.30498245 -0.30498245]
adapted_ji_idx = [10 16 23 31]
memory = 1691.308032
int3c2e [1/1], AO [0:32], ncol = 13924
Symmetry pattern (k + [ 0.30498245 -0.30498245 -0.30498245])*a= 2n pi
    make_kpt for [5]
Cholesky decomposition for j2c at kpt 6
Symmetry pattern (k - [ 6.09964908e-01  5.55111512e-17 -6.09964908e-01])*a= 2n pi
    make_kpt for uniq_kptji_ids [6 9]
kpt = [ 6.09964908e-01  5.55111512e-17 -6.09964908e-01]
adapted_ji_idx = [11 24]
memory = 1698.435072
int3c2e [1/1], AO [0:32], ncol = 13924
kpt = [ 0.         -0.60996491  0.        ]
adapted_ji_idx = [15 30]
memory = 1696.776192
int3c2e [1/1], AO [0:32], ncol = 13924
Symmetry pattern (k + [ 6.09964908e-01  5.55111512e-17 -6.09964908e-01])*a= 2n pi
    make_kpt for [6 9]
Cholesky decomposition for j2c at kpt 7
Symmetry pattern (k - [ 0.60996491 -0.60996491  0.        ])*a= 2n pi
    make_kpt for uniq_kptji_ids [ 7 11]
kpt = [ 0.60996491 -0.60996491  0.        ]
adapted_ji_idx = [12 18]
memory = 1700.032512
int3c2e [1/1], AO [0:32], ncol = 13924
kpt = [ 1.11022302e-16  0.00000000e+00 -6.09964908e-01]
adapted_ji_idx = [21 29]
memory = 1699.55328
int3c2e [1/1], AO [0:32], ncol = 13924
Symmetry pattern (k + [ 0.60996491 -0.60996491  0.        ])*a= 2n pi
    make_kpt for [ 7 11]
Cholesky decomposition for j2c at kpt 8
Symmetry pattern (k - [ 0.91494736 -0.30498245 -0.30498245])*a= 2n pi
    make_kpt for uniq_kptji_ids [ 8 10 12 13]
kpt = [ 0.91494736 -0.30498245 -0.30498245]
adapted_ji_idx = [13]
memory = 1698.492416
int3c2e [1/1], AO [0:32], ncol = 13924
kpt = [ 0.30498245 -0.91494736  0.30498245]
adapted_ji_idx = [17]
memory = 1703.165952
int3c2e [1/1], AO [0:32], ncol = 13924
kpt = [ 0.30498245  0.30498245 -0.91494736]
adapted_ji_idx = [22]
memory = 1702.219776
int3c2e [1/1], AO [0:32], ncol = 13924
kpt = [-0.30498245 -0.30498245 -0.30498245]
adapted_ji_idx = [28]
memory = 1704.275968
int3c2e [1/1], AO [0:32], ncol = 13924
Symmetry pattern (k + [ 0.91494736 -0.30498245 -0.30498245])*a= 2n pi
    make_kpt for [ 8 10 12 13]
    CPU time for j3c  43826.19 sec, wall time   1459.08 sec
    CPU time for Init get_k_kpts  43826.83 sec, wall time   1459.10 sec
    CPU time for get_k_kpts: make_kpt ki>=kj (0,*)      4.79 sec, wall time      0.32 sec
    CPU time for get_k_kpts: make_kpt ki>=kj (1,*)     15.01 sec, wall time      0.48 sec
    CPU time for get_k_kpts: make_kpt ki>=kj (2,*)     19.54 sec, wall time      0.64 sec
    CPU time for get_k_kpts: make_kpt ki>=kj (3,*)     28.09 sec, wall time      0.88 sec
    CPU time for get_k_kpts: make_kpt ki>=kj (4,*)     33.66 sec, wall time      1.12 sec
    CPU time for get_k_kpts: make_kpt ki>=kj (5,*)     41.01 sec, wall time      1.30 sec
    CPU time for get_k_kpts: make_kpt ki>=kj (6,*)     46.10 sec, wall time      1.45 sec
    CPU time for get_k_kpts: make_kpt ki>=kj (7,*)     50.70 sec, wall time      1.59 sec
Monkhorst pack size [2 2 2] ew_eta 2.0312209471041576 ew_cut 3.463973550287249
Ewald components = 0, -1.14616786107368, 1.03489448450362
    CPU time for get_j pass 1     17.52 sec, wall time      0.69 sec
    CPU time for get_j pass 2      5.42 sec, wall time      0.47 sec
    CPU time for vj and vk  44093.09 sec, wall time   1468.19 sec
Ewald components = 1.25967104982813e-135, -881.045459580493, 778.181077139905
E1 = (-616.420476518362+1.2608308008238785e-16j)  E_coul = (135.49241510417622+1.554363818018814e-17j)
init E= -583.792443854774
cond(S) = [ 146986.70275657 1174203.15271724 1174203.15269207  710205.32976435
 1174203.15264031  710205.32969575  710205.32971403 1174203.15273224]
    CPU time for initialize scf  44671.36 sec, wall time   1486.66 sec
HOMO = 0.278605577481  LUMO = 0.41198865502
     k-point                  mo_energy
   0 ( 0.000  0.000  0.000)   [-79.41071592 -57.93656111  -7.05586763  -4.92583937  -4.92583672
  -4.92583672  -4.41790548  -2.71154768  -2.71152477  -2.71152477
  -0.92760504   0.27826387   0.27826387   0.27860558] [ 0.42504244  0.57560001  0.57560001  0.57577929  0.77788516  0.77788516
  0.81533587  0.90344283  0.90344283  0.9036338   1.13369572  1.40390408
  1.40390832  1.40390832  1.48340405  1.48340405  1.51096349  1.51106567
  1.51106567  1.65891415  1.65891415  1.65893621  1.87854951  1.87854951
  1.87855288  2.00701312  2.00701312  2.11893058  2.13093042  2.13094908
  2.13094908  2.24941256  2.24942216  2.24942216  2.29971567  2.38753596
  2.38753596  2.38757196  2.54862448  2.54862448  2.54865557  2.56759668
  2.56759668  2.73939757  3.0209178   3.02096173  3.02096173  3.48240328
  3.7422421   3.74230219  3.74230219  4.15688971  4.15688971  4.15690096
  5.86557949  5.86557949  5.97612194  5.97612954  5.97612954  8.18764003
  8.18764003  8.42895155  8.46136291  8.46137904  8.46137904 10.9091412
 10.9091412  10.90915867 11.55454082 11.55457588 11.55457588 13.20565891
 19.66072287 19.66072682 19.66072682 19.66845492 19.66845538 19.66845538
 19.6820649  23.51650341 23.51650341 23.57199456 23.57199456 23.57200155
 27.77384582 27.77384591 27.77384591 27.7754025  27.7754025  27.77540325
 27.78542281 34.27489905 34.27489905 34.41990797 34.41991776 34.41991776
 37.15153763 37.15155213 37.15155213 43.75593568 43.75593568 43.75596024
 46.04086765 72.88811418]
   1 (-0.000  0.000  0.500)   [-79.41067909 -57.93656274  -7.05196688  -4.92627431  -4.92586189
  -4.92585686  -4.41616352  -2.7127729   -2.71172451  -2.71171441
  -0.51504766  -0.21829989   0.23143314   0.2318149 ] [ 0.43825078  0.58733457  0.58741444  0.72702201  0.87818663  0.89411347
  0.89414462  0.93735063  0.93740261  1.00691081  1.25813335  1.3082437
  1.3233194   1.32338603  1.3906942   1.39081387  1.50726869  1.51822389
  1.51826846  1.60297805  1.60305457  1.72045051  1.76575792  1.76583897
  1.81345009  1.84907466  1.84910733  1.90344399  2.05773813  2.20714819
  2.20717479  2.23442762  2.25762236  2.25768474  2.34732021  2.51318769
  2.51321008  2.574627    2.67029128  2.67038919  2.75022786  2.76688538
  2.79368056  2.79371458  2.95895401  2.98177777  2.98182004  3.4337596
  3.43377941  3.58169018  3.80960868  3.90495584  3.905007    4.12872552
  5.83265279  5.83267192  6.00516326  6.00516526  6.13908897  8.19041006
  8.19041707  8.34148182  8.40654663  8.40655339  8.92601811 10.62770865
 10.62772406 10.67353134 11.18906542 11.39954892 11.39957944 13.88057824
 19.66004217 19.66630463 19.66630774 19.66944941 19.66944987 19.66958205
 19.67309936 23.49515392 23.49515671 23.58932259 23.58933102 23.6574176
 27.77105172 27.77706541 27.77706555 27.77949424 27.77949479 27.78359864
 27.78889197 34.27253959 34.27254308 34.35583758 34.39411725 34.39412245
 36.77124013 36.77125282 36.77192504 43.34236579 43.60907496 43.60909652
 47.11967837 74.33774384]
   2 ( 0.000  0.500 -0.000)   [-79.41067909 -57.93656274  -7.05196688  -4.92627431  -4.92586189
  -4.92585686  -4.41616352  -2.7127729   -2.71172451  -2.71171441
  -0.51504766  -0.21829989   0.23143314   0.2318149 ] [ 0.43825078  0.58733457  0.58741444  0.72702201  0.87818663  0.89411347
  0.89414462  0.93735063  0.93740261  1.00691081  1.25813335  1.3082437
  1.3233194   1.32338603  1.3906942   1.39081387  1.50726869  1.51822389
  1.51826846  1.60297804  1.60305458  1.72045051  1.76575792  1.76583897
  1.81345009  1.84907466  1.84910733  1.90344399  2.05773813  2.20714819
  2.20717479  2.23442761  2.25762225  2.25768479  2.34732021  2.51318762
  2.51321011  2.574627    2.67029127  2.6703892   2.75022786  2.76688537
  2.79368058  2.79371453  2.958954    2.98177785  2.98181988  3.43375957
  3.43377942  3.58169018  3.80960867  3.90495583  3.90500701  4.12872551
  5.83265279  5.83267192  6.00516327  6.00516526  6.13908896  8.19041006
  8.19041707  8.34148182  8.40654662  8.4065534   8.92601811 10.62770865
 10.62772406 10.67353134 11.18906542 11.39954892 11.39957944 13.88057824
 19.66004217 19.66630463 19.66630774 19.66944941 19.66944987 19.66958205
 19.67309936 23.49515392 23.49515671 23.58932259 23.58933102 23.6574176
 27.77105172 27.77706541 27.77706555 27.77949424 27.77949479 27.78359864
 27.78889197 34.27253959 34.27254308 34.35583758 34.39411725 34.39412245
 36.77124013 36.77125282 36.77192504 43.34236579 43.60907496 43.60909652
 47.11967837 74.33774384]
   3 ( 0.000  0.500  0.500)   [-79.4106696  -57.93656571  -7.05104593  -4.92620818  -4.92592511
  -4.92591766  -4.41601554  -2.71234401  -2.71205737  -2.71205456
  -0.39348694  -0.1953226    0.13892879   0.13934325] [ 0.41198866  0.4427849   0.86809495  0.86813816  0.89280468  0.92122561
  0.92129533  0.94766861  1.017892    1.04835321  1.19052724  1.24518058
  1.24525078  1.2839817   1.2954447   1.29550093  1.33396909  1.38942747
  1.4819127   1.57159189  1.67833501  1.67847293  1.81942601  1.84411824
  1.84416077  1.92413389  1.95929123  1.98209636  2.03073797  2.03076011
  2.16066945  2.16069934  2.21702301  2.28826236  2.37767389  2.44221081
  2.44465096  2.44465143  2.6411477   2.69572903  2.69575971  2.81905595
  2.83964404  2.9488034   2.95442801  2.95442995  3.17427104  3.50721484
  3.5554912   3.5555211   3.62169675  3.98927436  3.98934662  4.10368382
  5.83998384  5.88470076  5.97891049  6.13501363  6.13501917  8.12626642
  8.15469034  8.15470148  8.15779573  8.3583307   9.15137792 10.54992546
 10.65532776 10.65533232 11.04265868 11.41521235 11.41523516 13.83886011
 19.66326636 19.66326916 19.66853645 19.67024502 19.67024542 19.67187524
 19.67193725 23.49426185 23.52932874 23.56568837 23.66437176 23.66437711
 27.77622191 27.7785945  27.77872975 27.77872976 27.78481615 27.78481664
 27.79536172 34.23936401 34.25229422 34.25230076 34.25405382 34.40699854
 36.65318184 36.78409301 36.78410428 43.22264596 43.64049013 43.64050672
 47.30560987 74.24833056]
   4 ( 0.500 -0.000 -0.000)   [-79.41067909 -57.93656274  -7.05196688  -4.92627431  -4.92586189
  -4.92585686  -4.41616352  -2.7127729   -2.71172451  -2.71171441
  -0.51504766  -0.21829989   0.23143314   0.2318149 ] [ 0.43825078  0.58733457  0.58741444  0.72702201  0.87818663  0.89411347
  0.89414462  0.93735063  0.93740261  1.00691081  1.25813335  1.3082437
  1.3233194   1.32338603  1.3906942   1.39081387  1.50726869  1.51822389
  1.51826846  1.60297804  1.60305457  1.72045051  1.76575792  1.76583897
  1.81345009  1.84907466  1.84910733  1.90344399  2.05773813  2.20714819
  2.20717479  2.23442761  2.25762231  2.25768471  2.34732021  2.51318766
  2.51321005  2.574627    2.67029127  2.67038919  2.75022786  2.76688537
  2.79368055  2.79371456  2.958954    2.98177771  2.98181996  3.43375959
  3.43377941  3.58169018  3.80960867  3.90495584  3.905007    4.12872551
  5.83265279  5.83267192  6.00516326  6.00516526  6.13908896  8.19041006
  8.19041707  8.34148182  8.40654663  8.40655339  8.92601811 10.62770865
 10.62772406 10.67353134 11.18906542 11.39954892 11.39957944 13.88057824
 19.66004217 19.66630463 19.66630774 19.66944941 19.66944987 19.66958205
 19.67309936 23.49515392 23.49515671 23.58932259 23.58933102 23.6574176
 27.77105172 27.77706541 27.77706555 27.77949424 27.77949479 27.78359864
 27.78889197 34.27253959 34.27254308 34.35583758 34.39411725 34.39412245
 36.77124013 36.77125282 36.77192504 43.34236579 43.60907496 43.60909652
 47.11967837 74.33774384]
   5 ( 0.500  0.000  0.500)   [-79.4106696  -57.93656571  -7.05104593  -4.92620818  -4.92592511
  -4.92591766  -4.41601554  -2.71234401  -2.71205737  -2.71205456
  -0.39348694  -0.1953226    0.13892879   0.13934325] [ 0.41198866  0.4427849   0.86809495  0.86813816  0.89280468  0.92122561
  0.92129533  0.94766861  1.017892    1.04835321  1.19052724  1.24518058
  1.24525078  1.28398171  1.2954447   1.29550093  1.33396909  1.38942747
  1.4819127   1.57159189  1.67833501  1.67847293  1.81942601  1.84411824
  1.84416077  1.92413389  1.95929123  1.98209636  2.03073797  2.03076011
  2.16066945  2.16069934  2.21702301  2.28826236  2.37767389  2.44221079
  2.44465096  2.44465143  2.6411477   2.69572903  2.69575971  2.81905595
  2.83964404  2.94880339  2.95442801  2.95442995  3.17427104  3.50721484
  3.5554912   3.5555211   3.62169674  3.98927436  3.98934662  4.10368379
  5.83998384  5.88470076  5.97891049  6.13501363  6.13501917  8.12626642
  8.15469034  8.15470148  8.15779573  8.3583307   9.15137792 10.54992546
 10.65532776 10.65533232 11.04265868 11.41521235 11.41523516 13.8388601
 19.66326636 19.66326916 19.66853645 19.67024502 19.67024542 19.67187524
 19.67193725 23.49426185 23.52932874 23.56568837 23.66437176 23.66437711
 27.77622191 27.7785945  27.77872975 27.77872976 27.78481615 27.78481664
 27.79536172 34.23936401 34.25229422 34.25230076 34.25405382 34.40699854
 36.65318184 36.78409301 36.78410428 43.22264596 43.64049013 43.64050672
 47.30560988 74.24833056]
   6 ( 0.500  0.500 -0.000)   [-79.4106696  -57.93656571  -7.05104593  -4.92620818  -4.92592511
  -4.92591766  -4.41601554  -2.71234401  -2.71205737  -2.71205456
  -0.39348694  -0.1953226    0.13892879   0.13934325] [ 0.41198866  0.4427849   0.86809495  0.86813816  0.89280468  0.92122561
  0.92129533  0.94766861  1.017892    1.04835321  1.19052724  1.24518058
  1.24525078  1.28398171  1.2954447   1.29550093  1.33396909  1.38942747
  1.4819127   1.57159189  1.67833501  1.67847293  1.81942602  1.84411824
  1.84416077  1.92413389  1.95929123  1.98209636  2.03073797  2.03076011
  2.16066945  2.16069934  2.21702302  2.28826237  2.37767389  2.44221077
  2.44465096  2.44465143  2.6411477   2.69572903  2.69575971  2.81905595
  2.83964404  2.94880337  2.95442801  2.95442995  3.17427104  3.50721484
  3.5554912   3.5555211   3.62169673  3.98927436  3.98934662  4.10368375
  5.83998384  5.88470076  5.97891049  6.13501363  6.13501917  8.12626642
  8.15469034  8.15470148  8.15779573  8.3583307   9.15137792 10.54992546
 10.65532776 10.65533232 11.04265868 11.41521235 11.41523516 13.8388601
 19.66326636 19.66326916 19.66853645 19.67024502 19.67024542 19.67187524
 19.67193725 23.49426185 23.52932874 23.56568837 23.66437176 23.66437711
 27.77622191 27.7785945  27.77872975 27.77872976 27.78481615 27.78481664
 27.79536172 34.23936401 34.25229422 34.25230076 34.25405382 34.40699854
 36.65318184 36.78409301 36.78410428 43.22264596 43.64049013 43.64050672
 47.30560987 74.24833056]
   7 ( 0.500  0.500  0.500)   [-79.41067882 -57.93656324  -7.05190281  -4.92626125  -4.92586304
  -4.92586304  -4.4162042   -2.71273894  -2.71171072  -2.71171072
  -0.51407017  -0.21482327   0.23251968   0.23251968] [ 0.43880403  0.58719987  0.58719987  0.72701267  0.8779099   0.89406583
  0.89406583  0.93724068  0.93724068  1.00690714  1.25812665  1.30824067
  1.32331365  1.32331365  1.39076588  1.39076588  1.50727104  1.51837187
  1.51837187  1.60309922  1.60309923  1.72045757  1.76575276  1.76575276
  1.81346848  1.84899513  1.84899513  1.90344404  2.05770037  2.20722149
  2.20722149  2.23451717  2.25765687  2.25765694  2.3473553   2.51321488
  2.51321494  2.57466007  2.67026675  2.67026676  2.75013902  2.76686566
  2.7936799   2.79367993  2.95903402  2.98184832  2.98184844  3.43378085
  3.43378087  3.58164052  3.8096606   3.90502748  3.90502749  4.12867307
  5.83264582  5.83264582  6.00517479  6.0051748   6.13908503  8.19041072
  8.19041072  8.34147664  8.40655875  8.40655876  8.92599607 10.62771689
 10.62771689 10.67356117 11.18903537 11.39957623 11.39957623 13.88057146
 19.66003866 19.66630765 19.66630765 19.66945021 19.66945021 19.66957962
 19.67310132 23.49515108 23.49515108 23.58932723 23.58932723 23.65742375
 27.77105163 27.77706517 27.77706517 27.77949452 27.77949452 27.78359916
 27.78889214 34.27253906 34.27253907 34.35582942 34.39412632 34.39412632
 36.77125483 36.77125483 36.7719091  43.342387   43.60907421 43.60907421
 47.11967911 74.33774145]
    CPU time for get_k_kpts: make_kpt ki>=kj (0,*)      4.19 sec, wall time      0.14 sec
    CPU time for get_k_kpts: make_kpt ki>=kj (1,*)     11.94 sec, wall time      0.38 sec
    CPU time for get_k_kpts: make_kpt ki>=kj (2,*)     20.47 sec, wall time      0.66 sec
    CPU time for get_k_kpts: make_kpt ki>=kj (3,*)     23.90 sec, wall time      0.77 sec
    CPU time for get_k_kpts: make_kpt ki>=kj (4,*)     33.76 sec, wall time      1.06 sec
    CPU time for get_k_kpts: make_kpt ki>=kj (5,*)     38.79 sec, wall time      1.23 sec
    CPU time for get_k_kpts: make_kpt ki>=kj (6,*)     41.79 sec, wall time      1.33 sec
    CPU time for get_k_kpts: make_kpt ki>=kj (7,*)     48.89 sec, wall time      1.54 sec
Monkhorst pack size [2 2 2] ew_eta 2.0312209471041576 ew_cut 3.463973550287249
Ewald components = 0, -1.14616786107368, 1.03489448450362
    CPU time for get_j pass 1     18.32 sec, wall time      0.74 sec
    CPU time for get_j pass 2      5.77 sec, wall time      0.47 sec
    CPU time for vj and vk    253.25 sec, wall time      8.51 sec
Ewald components = 1.25967104982813e-135, -881.045459580493, 778.181077139905
E1 = (-615.28819097686+1.2130180581572393e-16j)  E_coul = (135.40012190338595+8.770800653328412e-18j)
cycle= 1 E= -582.752451514062  delta_E= 1.04  |g|= 0.654  |ddm|= 6.88
    CPU time for cycle= 1    255.03 sec, wall time      8.70 sec
diis-norm(errvec)=1.84871
diis-c [-3.41771373+0.j  1.        +0.j]
HOMO = 0.135352951879  LUMO = 0.455358112758
     k-point                  mo_energy
   0 ( 0.000  0.000  0.000)   [-79.39636521 -58.12862283  -6.94900609  -4.84321764  -4.84321764
  -4.84321533  -4.5083755   -2.82275348  -2.82275269  -2.82275269
  -0.43776525   0.13531919   0.13535295   0.13535295] [ 0.56813287  0.59361063  0.59364313  0.59364313  0.77911395  0.77911395
  0.82472945  0.90233212  0.90233212  0.90237646  1.12368194  1.42045753
  1.42045776  1.42045776  1.50481014  1.50481014  1.52831185  1.52833861
  1.52833861  1.66488161  1.66488161  1.66490655  1.88135478  1.88135478
  1.88137124  2.00124196  2.00124196  2.10755254  2.12952043  2.12952043
  2.12954893  2.23903791  2.23903791  2.23903816  2.31952016  2.43052966
  2.43052966  2.43053145  2.5821292   2.58214417  2.58214417  2.60832204
  2.60832204  2.77292579  3.05652441  3.05655024  3.05655024  3.52007356
  3.76365634  3.76365634  3.76366033  4.14783535  4.14783535  4.14785468
  5.7749074   5.7749074   5.89154124  5.89155593  5.89155593  8.27597372
  8.27597372  8.34473243  8.54825785  8.54825785  8.54826141 10.82223892
 10.82224433 10.82224433 11.62200661 11.62200661 11.62201936 13.28981108
 19.54842027 19.54842027 19.54842717 19.55609853 19.55609853 19.55610027
 19.56992914 23.38839571 23.38839571 23.44439203 23.44439601 23.44439601
 27.85962201 27.85962929 27.85962929 27.86114494 27.86114649 27.86114649
 27.87119773 34.34699449 34.34699449 34.49190939 34.49190939 34.49191295
 37.00283797 37.00284334 37.00284334 43.80732522 43.80732522 43.8073317
 45.89845713 72.9357892 ]
   1 (-0.000  0.000  0.500)   [-79.39636621 -58.12862331  -6.94904217  -4.84322249  -4.84322049
  -4.84321281  -4.5083759   -2.82283209  -2.82278162  -2.822781
  -0.34882287  -0.12184953   0.09968049   0.09972159] [ 0.52746471  0.60111911  0.6011239   0.73597891  0.89971762  0.89973265
  0.9078616   0.94224991  0.94225535  1.0290747   1.26367107  1.30285919
  1.33717296  1.33719862  1.38536177  1.38539584  1.50319564  1.53873771
  1.53874641  1.61735309  1.61738781  1.72565887  1.77077924  1.77078848
  1.83164159  1.83283531  1.83286183  1.89159446  2.05165125  2.2137672
  2.2137835   2.25007678  2.26891066  2.26891172  2.38055579  2.54914079
  2.54914453  2.60741151  2.7134234   2.71342378  2.75248347  2.78943072
  2.824409    2.82441367  2.994981    3.02122185  3.02124127  3.42277736
  3.42279004  3.5952045   3.8124938   3.92321642  3.9232174   4.16866203
  5.74355819  5.74356091  5.91993374  5.91994625  6.05660689  8.27847354
  8.27847766  8.42869012  8.49362915  8.4936345   8.84120178 10.53233011
 10.53233678 10.57461407 11.26791933 11.47541446 11.4754214  13.96506831
 19.54773322 19.55402009 19.55402602 19.55709771 19.55709881 19.55725588
 19.56091593 23.36708817 23.36708944 23.46169265 23.46169749 23.53003399
 27.85683985 27.86283789 27.86284312 27.86522997 27.86523014 27.86934008
 27.87462172 34.3446273  34.34462902 34.42790336 34.46609753 34.46609935
 36.62230561 36.62231015 36.62278916 43.3926618  43.66064529 43.66065025
 46.97814447 74.38525721]
   2 ( 0.000  0.500 -0.000)   [-79.39636621 -58.12862331  -6.94904217  -4.84322249  -4.84322049
  -4.84321281  -4.5083759   -2.82283209  -2.82278162  -2.822781
  -0.34882287  -0.12184953   0.09968049   0.09972159] [ 0.52746471  0.60111911  0.6011239   0.73597891  0.89971762  0.89973265
  0.9078616   0.94224991  0.94225535  1.0290747   1.26367107  1.30285919
  1.33717296  1.33719862  1.38536177  1.38539584  1.50319564  1.53873771
  1.53874642  1.61735308  1.61738781  1.72565887  1.77077924  1.77078848
  1.83164159  1.83283531  1.83286183  1.89159446  2.05165125  2.2137672
  2.2137835   2.25007677  2.26891054  2.26891178  2.38055579  2.54914082
  2.54914446  2.60741151  2.71342341  2.71342377  2.75248346  2.78943071
  2.82440896  2.82441369  2.99498099  3.02122192  3.02124113  3.42277733
  3.42279005  3.5952045   3.81249379  3.92321642  3.92321739  4.16866202
  5.74355818  5.74356092  5.91993373  5.91994626  6.05660689  8.27847354
  8.27847766  8.42869012  8.49362916  8.49363449  8.84120177 10.5323301
 10.53233678 10.57461407 11.26791933 11.47541446 11.4754214  13.96506831
 19.54773322 19.55402009 19.55402602 19.55709771 19.55709881 19.55725588
 19.56091593 23.36708817 23.36708944 23.46169265 23.46169749 23.53003399
 27.85683985 27.86283789 27.86284312 27.86522997 27.86523014 27.86934008
 27.87462172 34.3446273  34.34462902 34.42790336 34.46609753 34.46609935
 36.62230561 36.62231015 36.62278916 43.3926618  43.66064529 43.66065025
 46.97814447 74.38525721]
   3 ( 0.000  0.500  0.500)   [-7.93963665e+01 -5.81286235e+01 -6.94905447e+00 -4.84322224e+00
 -4.84322088e+00 -4.84321420e+00 -4.50837572e+00 -2.82282263e+00
 -2.82280839e+00 -2.82280790e+00 -3.12192497e-01 -1.15347405e-01
  3.74193139e-02  3.74514204e-02] [ 0.45535811  0.5004374   0.88566587  0.8856699   0.93127572  0.93129404
  0.9399666   0.96222916  1.00953726  1.05545641  1.21120868  1.23482499
  1.23482718  1.27416743  1.29392328  1.29393084  1.3319732   1.38130121
  1.51821416  1.56446516  1.69862699  1.6986855   1.80752816  1.84403445
  1.84406504  1.9353976   1.96105721  1.99854313  2.03786834  2.03788327
  2.16341586  2.16345099  2.22790703  2.28814629  2.42201638  2.44850155
  2.47331493  2.47332145  2.69103102  2.73507777  2.73508545  2.83683729
  2.88026078  2.95803808  2.97923032  2.97924854  3.19065543  3.54568894
  3.55115875  3.5511652   3.59532489  4.01083338  4.01083961  4.15686904
  5.7508263   5.79419138  5.89588524  6.04980307  6.04980905  8.21439683
  8.24310485  8.2431088   8.24585645  8.42343319  9.08835691 10.44913221
 10.55810624 10.55811211 11.12403353 11.49294092 11.49294917 13.92386923
 19.55098145 19.55098607 19.55617522 19.55789732 19.55789859 19.55961349
 19.5597702  23.36616027 23.40125113 23.43819215 23.53683982 23.53684234
 27.86200419 27.86432826 27.8645015  27.86450632 27.87053454 27.87053556
 27.88109803 34.31142862 34.32444066 34.32444309 34.326135   34.47904469
 36.50382598 36.63497908 36.63498284 43.27448208 43.69214932 43.69215352
 47.16276823 74.29602276]
   4 ( 0.500 -0.000 -0.000)   [-79.39636621 -58.12862331  -6.94904217  -4.84322249  -4.84322049
  -4.84321281  -4.5083759   -2.82283209  -2.82278162  -2.822781
  -0.34882287  -0.12184953   0.09968049   0.09972159] [ 0.52746471  0.60111911  0.6011239   0.73597891  0.89971762  0.89973265
  0.9078616   0.94224991  0.94225535  1.0290747   1.26367107  1.30285919
  1.33717296  1.33719862  1.38536177  1.38539584  1.50319564  1.53873771
  1.53874641  1.61735309  1.6173878   1.72565887  1.77077924  1.77078848
  1.83164159  1.83283531  1.83286183  1.89159446  2.05165125  2.2137672
  2.2137835   2.25007677  2.2689106   2.26891168  2.38055579  2.54914076
  2.5491445   2.60741151  2.7134234   2.71342378  2.75248346  2.78943071
  2.82440898  2.82441366  2.99498098  3.0212218   3.0212412   3.42277735
  3.42279003  3.5952045   3.81249379  3.92321642  3.92321739  4.16866202
  5.74355818  5.74356091  5.91993373  5.91994625  6.05660689  8.27847354
  8.27847766  8.42869012  8.49362915  8.49363449  8.84120177 10.53233011
 10.53233678 10.57461407 11.26791933 11.47541446 11.4754214  13.96506831
 19.54773322 19.55402009 19.55402602 19.55709771 19.55709881 19.55725588
 19.56091593 23.36708817 23.36708944 23.46169265 23.46169749 23.53003399
 27.85683985 27.86283789 27.86284312 27.86522997 27.86523014 27.86934008
 27.87462172 34.3446273  34.34462902 34.42790336 34.46609753 34.46609935
 36.62230561 36.62231015 36.62278916 43.3926618  43.66064529 43.66065025
 46.97814447 74.38525721]
   5 ( 0.500  0.000  0.500)   [-7.93963665e+01 -5.81286235e+01 -6.94905447e+00 -4.84322224e+00
 -4.84322088e+00 -4.84321420e+00 -4.50837572e+00 -2.82282263e+00
 -2.82280839e+00 -2.82280790e+00 -3.12192497e-01 -1.15347405e-01
  3.74193139e-02  3.74514204e-02] [ 0.45535811  0.5004374   0.88566587  0.8856699   0.93127572  0.93129404
  0.9399666   0.96222916  1.00953726  1.05545641  1.21120868  1.23482499
  1.23482718  1.27416743  1.29392328  1.29393084  1.3319732   1.38130121
  1.51821416  1.56446516  1.69862699  1.6986855   1.80752816  1.84403445
  1.84406504  1.9353976   1.96105721  1.99854313  2.03786834  2.03788326
  2.16341586  2.16345099  2.22790704  2.28814629  2.42201638  2.44850153
  2.47331493  2.47332145  2.69103102  2.73507777  2.73508545  2.83683729
  2.88026078  2.95803807  2.97923032  2.97924854  3.19065543  3.54568894
  3.55115875  3.5511652   3.59532488  4.01083338  4.01083961  4.15686901
  5.7508263   5.79419138  5.89588524  6.04980307  6.04980905  8.21439683
  8.24310485  8.2431088   8.24585645  8.42343319  9.08835691 10.44913221
 10.55810624 10.55811211 11.12403353 11.49294092 11.49294917 13.92386923
 19.55098145 19.55098607 19.55617522 19.55789732 19.55789859 19.55961349
 19.5597702  23.36616027 23.40125113 23.43819215 23.53683982 23.53684234
 27.86200419 27.86432826 27.8645015  27.86450632 27.87053454 27.87053556
 27.88109803 34.31142862 34.32444066 34.32444309 34.326135   34.47904469
 36.50382598 36.63497908 36.63498284 43.27448208 43.69214932 43.69215352
 47.16276823 74.29602276]
   6 ( 0.500  0.500 -0.000)   [-7.93963665e+01 -5.81286235e+01 -6.94905447e+00 -4.84322224e+00
 -4.84322088e+00 -4.84321420e+00 -4.50837572e+00 -2.82282263e+00
 -2.82280839e+00 -2.82280790e+00 -3.12192497e-01 -1.15347405e-01
  3.74193139e-02  3.74514204e-02] [ 0.45535811  0.5004374   0.88566587  0.8856699   0.93127572  0.93129404
  0.9399666   0.96222916  1.00953726  1.05545641  1.21120868  1.23482499
  1.23482718  1.27416743  1.29392328  1.29393084  1.3319732   1.38130121
  1.51821416  1.56446516  1.69862699  1.6986855   1.80752817  1.84403445
  1.84406504  1.9353976   1.96105721  1.99854313  2.03786834  2.03788327
  2.16341586  2.16345099  2.22790704  2.28814629  2.42201638  2.44850151
  2.47331493  2.47332145  2.69103102  2.73507777  2.73508545  2.83683729
  2.88026078  2.95803806  2.97923032  2.97924854  3.19065543  3.54568894
  3.55115875  3.5511652   3.59532488  4.01083338  4.01083961  4.15686897
  5.7508263   5.79419138  5.89588524  6.04980307  6.04980905  8.21439683
  8.24310485  8.2431088   8.24585645  8.42343319  9.08835691 10.44913221
 10.55810624 10.55811211 11.12403353 11.49294092 11.49294917 13.92386923
 19.55098145 19.55098607 19.55617522 19.55789732 19.55789859 19.55961349
 19.5597702  23.36616027 23.40125113 23.43819215 23.53683982 23.53684234
 27.86200419 27.86432826 27.8645015  27.86450632 27.87053454 27.87053556
 27.88109803 34.31142862 34.32444066 34.32444309 34.326135   34.47904469
 36.50382598 36.63497908 36.63498284 43.27448208 43.69214932 43.69215352
 47.16276823 74.29602276]
   7 ( 0.500  0.500  0.500)   [-79.3963662  -58.12862331  -6.94904217  -4.8432225   -4.8432225
  -4.84321074  -4.5083759   -2.82283269  -2.82278097  -2.82278097
  -0.34880623  -0.12188357   0.09973521   0.09973521] [ 0.52742736  0.6011182   0.6011182   0.73599557  0.89971513  0.89971513
  0.90787219  0.94223409  0.94223409  1.02907404  1.26366369  1.302853
  1.33718762  1.33718763  1.38536793  1.38536793  1.50322951  1.53877337
  1.53877338  1.61740014  1.61740015  1.72568306  1.77076228  1.77076228
  1.83161603  1.83282111  1.83282111  1.89160085  2.05167914  2.21378576
  2.21378576  2.25008716  2.26890004  2.26890013  2.38053829  2.5491357
  2.54913575  2.60740132  2.7134137   2.71341371  2.75245711  2.78943023
  2.82440491  2.82440494  2.99499623  3.02122119  3.0212213   3.4227869
  3.42278692  3.59524602  3.81248032  3.92322614  3.92322615  4.16863841
  5.74356245  5.74356245  5.91994218  5.91994219  6.05659496  8.27847734
  8.27847734  8.42870283  8.49362492  8.49362493  8.8411952  10.53233766
 10.53233767 10.5746156  11.26792374 11.4754172  11.4754172  13.96506501
 19.54773936 19.55402065 19.55402065 19.55709687 19.55709687 19.55726016
 19.56091316 23.36709108 23.36709108 23.46169453 23.46169453 23.53003069
 27.85683337 27.86284235 27.86284235 27.86523218 27.86523218 27.86933675
 27.87462365 34.3446294  34.3446294  34.42790717 34.46609541 34.46609541
 36.62231044 36.62231044 36.6227837  43.39266649 43.66064555 43.66064555
 46.97814496 74.38525703]
    CPU time for get_k_kpts: make_kpt ki>=kj (0,*)      4.94 sec, wall time      0.16 sec
    CPU time for get_k_kpts: make_kpt ki>=kj (1,*)     12.31 sec, wall time      0.40 sec
    CPU time for get_k_kpts: make_kpt ki>=kj (2,*)     19.84 sec, wall time      0.64 sec
    CPU time for get_k_kpts: make_kpt ki>=kj (3,*)     26.42 sec, wall time      0.84 sec
    CPU time for get_k_kpts: make_kpt ki>=kj (4,*)     30.51 sec, wall time      0.97 sec
    CPU time for get_k_kpts: make_kpt ki>=kj (5,*)     36.57 sec, wall time      1.16 sec
    CPU time for get_k_kpts: make_kpt ki>=kj (6,*)     45.86 sec, wall time      1.44 sec
    CPU time for get_k_kpts: make_kpt ki>=kj (7,*)     51.09 sec, wall time      1.61 sec
Monkhorst pack size [2 2 2] ew_eta 2.0312209471041576 ew_cut 3.463973550287249
Ewald components = 0, -1.14616786107368, 1.03489448450362
    CPU time for get_j pass 1     17.28 sec, wall time      0.65 sec
    CPU time for get_j pass 2      5.63 sec, wall time      0.44 sec
    CPU time for vj and vk    256.98 sec, wall time      8.61 sec
Ewald components = 1.25967104982813e-135, -881.045459580493, 778.181077139905
E1 = (-615.3448927616679+1.227689989370996e-16j)  E_coul = (135.43736877759233+1.2834720844611281e-17j)
cycle= 2 E= -582.771906424663  delta_E= -0.0195  |g|=  0.2  |ddm|= 3.36
    CPU time for cycle= 2    260.17 sec, wall time      8.73 sec
diis-norm(errvec)=0.624249
diis-c [-0.35948715+0.00000000e+00j -0.11033585-6.58378136e-32j
  1.11033585+6.58378136e-32j]
HOMO = 0.122637679435  LUMO = 0.458781295321
     k-point                  mo_energy
   0 ( 0.000  0.000  0.000)   [-79.45153777 -58.02960979  -6.99941743  -4.89557748  -4.89557748
  -4.89557733  -4.45415251  -2.7691273   -2.7691273   -2.76912655
  -0.44439601   0.12261757   0.12263768   0.12263768] [ 0.57034785  0.59782561  0.59782591  0.59782591  0.77714197  0.77714197
  0.83245376  0.90457644  0.90457644  0.90458424  1.12452859  1.41821469
  1.4182167   1.4182167   1.50340761  1.50340761  1.52637625  1.52638197
  1.52638197  1.66625891  1.66625891  1.6662593   1.88246025  1.88246025
  1.88246691  2.00368888  2.00368888  2.11188471  2.12945059  2.12945059
  2.12946164  2.24345297  2.24345534  2.24345534  2.32260712  2.42059601
  2.42059601  2.42059691  2.57449769  2.57450464  2.57450464  2.59372123
  2.59372123  2.76117237  3.04608901  3.04609403  3.04609403  3.51066743
  3.75731684  3.75731684  3.75732434  4.15211389  4.15211389  4.1521172
  5.81632611  5.81632611  5.93113838  5.93114655  5.93114655  8.22949363
  8.22949363  8.38801508  8.50296467  8.50296467  8.50297086 10.86331311
 10.86331482 10.86331482 11.58376921 11.58376921 11.58377497 13.24641893
 19.6017155  19.6017155  19.60172031 19.60935892 19.60935892 19.60936
 19.62320891 23.45241621 23.45241621 23.5083348  23.50833724 23.50833724
 27.80645475 27.80646084 27.80646084 27.8079775  27.80797888 27.80797888
 27.81805636 34.29388202 34.29388202 34.4389539  34.4389539  34.43895705
 37.07701639 37.07701917 37.07701917 43.75512892 43.75512892 43.75513291
 45.96995367 72.8848407 ]
   1 (-0.000  0.000  0.500)   [-79.45153858 -58.02961031  -6.99944491  -4.89558112  -4.89558099
  -4.89557557  -4.45415312  -2.76921705  -2.76915784  -2.76915715
  -0.3589575   -0.12357019   0.08891972   0.08894248] [ 0.53143787  0.60365418  0.60366083  0.73723692  0.8958267   0.89583022
  0.90576624  0.94568331  0.94568707  1.02967473  1.26376422  1.30821308
  1.33351282  1.33351719  1.3892201   1.38922848  1.50217628  1.53495524
  1.53495836  1.61651265  1.61652504  1.72774105  1.77009072  1.7700932
  1.82645456  1.83908234  1.839099    1.89707533  2.05531378  2.21409308
  2.21410009  2.24649958  2.26712095  2.26712392  2.37257173  2.53636667
  2.53636855  2.60071215  2.70166396  2.70167317  2.75583104  2.78613866
  2.81677531  2.81678126  2.98120537  3.0070496   3.007051    3.43212804
  3.43212867  3.59207504  3.81411264  3.91687533  3.91688088  4.15631782
  5.78437274  5.7843745   5.95972895  5.95973624  6.09536453  8.23197162
  8.23197535  8.38263134  8.44811018  8.44811234  8.88459802 10.57781388
 10.57781611 10.62159306 11.22465529 11.43324673 11.43325265 13.92147744
 19.60102991 19.60730587 19.60731002 19.61035952 19.61036017 19.61051299
 19.61420793 23.43110622 23.43110696 23.52562372 23.52562664 23.59386354
 27.80366726 27.80967291 27.80967728 27.81207152 27.81207172 27.8161767
 27.82151107 34.29150828 34.29150968 34.374847   34.41314094 34.41314243
 36.69668436 36.69668664 36.697274   43.34128551 43.60836821 43.60837157
 47.0490194  74.33423787]
   2 ( 0.000  0.500 -0.000)   [-79.45153858 -58.02961031  -6.99944491  -4.89558112  -4.89558099
  -4.89557557  -4.45415312  -2.76921705  -2.76915784  -2.76915715
  -0.3589575   -0.12357019   0.08891972   0.08894248] [ 0.53143787  0.60365418  0.60366083  0.73723692  0.8958267   0.89583022
  0.90576624  0.94568331  0.94568707  1.02967473  1.26376422  1.30821308
  1.33351282  1.33351719  1.3892201   1.38922848  1.50217628  1.53495524
  1.53495836  1.61651264  1.61652504  1.72774105  1.77009072  1.7700932
  1.82645456  1.83908234  1.839099    1.89707533  2.05531378  2.21409308
  2.21410009  2.24649957  2.26712101  2.2671238   2.37257173  2.53636671
  2.53636848  2.60071215  2.70166396  2.70167317  2.75583104  2.78613866
  2.81677527  2.81678128  2.98120535  3.00704968  3.00705085  3.43212801
  3.43212868  3.59207504  3.81411264  3.91687533  3.91688088  4.15631781
  5.78437274  5.7843745   5.95972894  5.95973624  6.09536453  8.23197163
  8.23197535  8.38263134  8.44811019  8.44811233  8.88459802 10.57781388
 10.57781611 10.62159305 11.22465529 11.43324673 11.43325265 13.92147744
 19.60102991 19.60730587 19.60731002 19.61035952 19.61036017 19.61051299
 19.61420793 23.43110622 23.43110696 23.52562372 23.52562664 23.59386354
 27.80366726 27.80967291 27.80967728 27.81207152 27.81207172 27.8161767
 27.82151107 34.29150828 34.29150968 34.374847   34.41314095 34.41314243
 36.69668436 36.69668664 36.697274   43.34128551 43.60836821 43.60837157
 47.0490194  74.33423787]
   3 ( 0.000  0.500  0.500)   [-7.94515388e+01 -5.80296105e+01 -6.99945435e+00 -4.89558163e+00
 -4.89558152e+00 -4.89557629e+00 -4.45415322e+00 -2.76920693e+00
 -2.76918738e+00 -2.76918686e+00 -3.24630026e-01 -1.16045637e-01
  2.93185819e-02  2.93298869e-02] [ 0.4587813   0.50360841  0.88884973  0.88885172  0.92619631  0.92620383
  0.93497434  0.95469093  1.0153037   1.05993483  1.20363858  1.23742803
  1.23743278  1.27754843  1.29501531  1.29501648  1.33344329  1.38775193
  1.50919149  1.57249353  1.6964907   1.69650543  1.80851431  1.84479928
  1.84481339  1.93353369  1.97053002  1.98712077  2.03683333  2.03683491
  2.16438338  2.16439819  2.22723525  2.29058211  2.40528524  2.44543363
  2.46444281  2.46444647  2.6791628   2.72484109  2.72484568  2.83065682
  2.8641307   2.96202978  2.97643868  2.97644886  3.18832144  3.53302976
  3.55632921  3.55633456  3.60836514  4.00331657  4.0033198   4.13664923
  5.79165737  5.83551667  5.93516803  6.08948983  6.08949354  8.16767905
  8.19658376  8.19658793  8.1993189   8.39037285  9.11981094 10.49671052
 10.60442771 10.60443026 11.07947428 11.44978841 11.44979285 13.88012745
 19.60426836 19.60427159 19.60943668 19.61115429 19.6111551  19.61288829
 19.61307024 23.43017098 23.46524984 23.50208918 23.60071558 23.60071717
 27.80883906 27.81116557 27.8113408  27.8113448  27.81738395 27.81738486
 27.82799205 34.25829838 34.27134311 34.27134521 34.27301598 34.42604823
 36.57836528 36.70947778 36.70947973 43.22212295 43.63980366 43.63980627
 47.23464233 74.24492672]
   4 ( 0.500 -0.000 -0.000)   [-79.45153858 -58.02961031  -6.99944491  -4.89558112  -4.89558099
  -4.89557557  -4.45415312  -2.76921705  -2.76915784  -2.76915715
  -0.3589575   -0.12357019   0.08891972   0.08894248] [ 0.53143787  0.60365418  0.60366083  0.73723692  0.8958267   0.89583022
  0.90576624  0.94568331  0.94568707  1.02967473  1.26376422  1.30821308
  1.33351282  1.33351719  1.3892201   1.38922848  1.50217628  1.53495524
  1.53495836  1.61651264  1.61652503  1.72774105  1.77009072  1.7700932
  1.82645456  1.83908234  1.839099    1.89707533  2.05531378  2.21409308
  2.21410009  2.24649957  2.26712091  2.26712386  2.37257173  2.53636665
  2.53636851  2.60071215  2.70166396  2.70167317  2.75583104  2.78613866
  2.81677529  2.81678125  2.98120535  3.00704956  3.00705092  3.43212802
  3.43212866  3.59207504  3.81411264  3.91687533  3.91688088  4.15631781
  5.78437274  5.7843745   5.95972894  5.95973624  6.09536453  8.23197162
  8.23197535  8.38263133  8.44811018  8.44811234  8.88459802 10.57781388
 10.57781611 10.62159305 11.22465529 11.43324673 11.43325265 13.92147744
 19.60102991 19.60730587 19.60731002 19.61035952 19.61036017 19.61051299
 19.61420793 23.43110622 23.43110696 23.52562372 23.52562664 23.59386354
 27.80366726 27.80967291 27.80967728 27.81207152 27.81207172 27.8161767
 27.82151107 34.29150828 34.29150968 34.374847   34.41314094 34.41314243
 36.69668436 36.69668664 36.697274   43.34128551 43.60836821 43.60837157
 47.0490194  74.33423787]
   5 ( 0.500  0.000  0.500)   [-7.94515388e+01 -5.80296105e+01 -6.99945435e+00 -4.89558163e+00
 -4.89558152e+00 -4.89557629e+00 -4.45415322e+00 -2.76920693e+00
 -2.76918738e+00 -2.76918686e+00 -3.24630026e-01 -1.16045637e-01
  2.93185819e-02  2.93298869e-02] [ 0.4587813   0.50360841  0.88884973  0.88885172  0.92619631  0.92620383
  0.93497434  0.95469093  1.0153037   1.05993483  1.20363858  1.23742803
  1.23743278  1.27754843  1.29501531  1.29501648  1.33344329  1.38775193
  1.50919149  1.57249353  1.6964907   1.69650543  1.80851431  1.84479928
  1.84481339  1.93353369  1.97053002  1.98712077  2.03683333  2.03683491
  2.16438338  2.16439819  2.22723525  2.29058211  2.40528524  2.44543362
  2.46444281  2.46444647  2.6791628   2.72484109  2.72484568  2.83065682
  2.8641307   2.96202977  2.97643868  2.97644885  3.18832145  3.53302976
  3.5563292   3.55633455  3.60836513  4.00331657  4.0033198   4.1366492
  5.79165737  5.83551667  5.93516803  6.08948983  6.08949354  8.16767905
  8.19658376  8.19658793  8.1993189   8.39037285  9.11981094 10.49671052
 10.60442771 10.60443026 11.07947428 11.44978841 11.44979285 13.88012745
 19.60426836 19.60427159 19.60943668 19.61115429 19.6111551  19.61288829
 19.61307024 23.43017098 23.46524984 23.50208918 23.60071558 23.60071717
 27.80883906 27.81116557 27.8113408  27.8113448  27.81738395 27.81738486
 27.82799205 34.25829838 34.27134311 34.27134521 34.27301598 34.42604823
 36.57836528 36.70947778 36.70947973 43.22212295 43.63980366 43.63980627
 47.23464233 74.24492672]
   6 ( 0.500  0.500 -0.000)   [-7.94515388e+01 -5.80296105e+01 -6.99945435e+00 -4.89558163e+00
 -4.89558152e+00 -4.89557629e+00 -4.45415322e+00 -2.76920693e+00
 -2.76918738e+00 -2.76918686e+00 -3.24630026e-01 -1.16045637e-01
  2.93185819e-02  2.93298869e-02] [ 0.4587813   0.50360841  0.88884973  0.88885172  0.92619631  0.92620383
  0.93497434  0.95469093  1.0153037   1.05993483  1.20363858  1.23742803
  1.23743278  1.27754844  1.29501531  1.29501648  1.33344329  1.38775193
  1.50919149  1.57249353  1.6964907   1.69650543  1.80851432  1.84479928
  1.84481339  1.93353369  1.97053002  1.98712077  2.03683333  2.03683491
  2.16438338  2.16439819  2.22723525  2.29058212  2.40528524  2.44543359
  2.46444281  2.46444647  2.6791628   2.72484109  2.72484568  2.83065682
  2.8641307   2.96202976  2.97643868  2.97644885  3.18832145  3.53302976
  3.5563292   3.55633455  3.60836512  4.00331657  4.0033198   4.13664916
  5.79165737  5.83551667  5.93516803  6.08948983  6.08949354  8.16767905
  8.19658376  8.19658793  8.1993189   8.39037285  9.11981094 10.49671052
 10.60442771 10.60443026 11.07947428 11.44978841 11.44979285 13.88012744
 19.60426836 19.60427159 19.60943668 19.61115429 19.6111551  19.61288829
 19.61307024 23.43017098 23.46524984 23.50208918 23.60071558 23.60071717
 27.80883906 27.81116557 27.8113408  27.8113448  27.81738395 27.81738486
 27.82799205 34.25829838 34.27134311 34.27134521 34.27301598 34.42604823
 36.57836528 36.70947778 36.70947973 43.22212295 43.63980366 43.63980627
 47.23464233 74.24492672]
   7 ( 0.500  0.500  0.500)   [-79.45153858 -58.02961031  -6.9994449   -4.89558113  -4.89558113
  -4.89557542  -4.45415312  -2.76921638  -2.76915785  -2.76915785
  -0.3589522   -0.12358034   0.0889361    0.0889361 ] [ 0.53142575  0.6036632   0.6036632   0.73723797  0.89582884  0.89582884
  0.90575903  0.94567803  0.94567803  1.02968273  1.26376568  1.30821158
  1.33351497  1.33351497  1.3892235   1.3892235   1.50218615  1.53496461
  1.53496461  1.61652872  1.61652873  1.72774134  1.77008841  1.77008841
  1.82645526  1.8390782   1.8390782   1.89707938  2.05531738  2.21409502
  2.21409502  2.24649992  2.26711424  2.26711433  2.37256558  2.53637422
  2.53637427  2.60071477  2.70166841  2.70166842  2.75582045  2.78612881
  2.81677604  2.81677607  2.98120751  3.00704631  3.00704642  3.43212806
  3.43212808  3.59208325  3.81412071  3.9168761   3.9168761   4.15631881
  5.78437522  5.78437522  5.95973379  5.95973379  6.09535831  8.23197638
  8.23197638  8.38263566  8.44810627  8.44810628  8.88459336 10.57781691
 10.57781692 10.62159463 11.22466047 11.43324674 11.43324674 13.92147931
 19.60103419 19.6073063  19.6073063  19.6103589  19.6103589  19.61051589
 19.61420598 23.43110792 23.43110792 23.52562491 23.52562491 23.59386153
 27.80366186 27.80967664 27.80967664 27.81207336 27.81207336 27.81617383
 27.8215127  34.29151003 34.29151003 34.37484994 34.41313923 34.41313924
 36.69668685 36.69668685 36.69727112 43.34128866 43.60836823 43.60836823
 47.04901967 74.33423813]
    CPU time for get_k_kpts: make_kpt ki>=kj (0,*)      5.91 sec, wall time      0.19 sec
    CPU time for get_k_kpts: make_kpt ki>=kj (1,*)     14.72 sec, wall time      0.49 sec
    CPU time for get_k_kpts: make_kpt ki>=kj (2,*)     22.06 sec, wall time      0.70 sec
    CPU time for get_k_kpts: make_kpt ki>=kj (3,*)     30.76 sec, wall time      0.97 sec
    CPU time for get_k_kpts: make_kpt ki>=kj (4,*)     34.06 sec, wall time      1.08 sec
    CPU time for get_k_kpts: make_kpt ki>=kj (5,*)     42.44 sec, wall time      1.38 sec
    CPU time for get_k_kpts: make_kpt ki>=kj (6,*)     48.15 sec, wall time      1.53 sec
    CPU time for get_k_kpts: make_kpt ki>=kj (7,*)     53.81 sec, wall time      1.72 sec
Monkhorst pack size [2 2 2] ew_eta 2.0312209471041576 ew_cut 3.463973550287249
Ewald components = 0, -1.14616786107368, 1.03489448450362
    CPU time for get_j pass 1     20.37 sec, wall time      0.75 sec
    CPU time for get_j pass 2      5.65 sec, wall time      0.49 sec
    CPU time for vj and vk    282.85 sec, wall time      9.46 sec
Ewald components = 1.25967104982813e-135, -881.045459580493, 778.181077139905
E1 = (-615.3950914614026+1.2380111508161802e-16j)  E_coul = (135.48537981261956+1.3334221330264742e-17j)
cycle= 3 E= -582.774094089371  delta_E= -0.00219  |g|= 0.0781  |ddm|= 0.57
    CPU time for cycle= 3    286.62 sec, wall time      9.59 sec
diis-norm(errvec)=0.193106
diis-c [-0.01839292-8.75811540e-47j -0.08548839+7.69742362e-32j
  0.04986107-4.66249582e-31j  1.03562732+3.89275346e-31j]
HOMO = 0.124149291891  LUMO = 0.459381963411
     k-point                  mo_energy
   0 ( 0.000  0.000  0.000)   [-79.42946254 -58.05647226  -6.98405595  -4.8798705   -4.87987019
  -4.87987019  -4.46361352  -2.77965954  -2.77965926  -2.77965926
  -0.44173936   0.12413578   0.12414929   0.12414929] [ 0.5730434   0.5992355   0.5992355   0.59924063  0.77850682  0.77850682
  0.83206336  0.90426241  0.90426241  0.90426424  1.12313641  1.41983634
  1.41983747  1.41983747  1.50566616  1.50566616  1.52780017  1.52780471
  1.52780471  1.66712992  1.66712992  1.6671312   1.88346276  1.88346276
  1.88346592  2.0036419   2.0036419   2.11136462  2.12996679  2.12996679
  2.12997207  2.24270778  2.24270841  2.24270841  2.32471155  2.42382702
  2.42382702  2.42382716  2.57718496  2.57718836  2.57718836  2.59768362
  2.59768362  2.7639797   3.04990165  3.04990471  3.04990471  3.51452764
  3.76024916  3.76024916  3.76025258  4.15230873  4.15230873  4.15230963
  5.80973435  5.80973435  5.92509314  5.92509876  5.92509876  8.24262701
  8.24262701  8.38071422  8.5158028   8.5158028   8.51580652 10.85600785
 10.85601014 10.85601014 11.59519675 11.59519675 11.59520003 13.25960811
 19.59185965 19.59185965 19.59186302 19.59949728 19.59949728 19.59949799
 19.61336676 23.4385989  23.4385989  23.49457263 23.4945744  23.4945744
 27.82214236 27.82214606 27.82214606 27.8236568  27.82365762 27.82365762
 27.83374279 34.31098699 34.31098699 34.45602681 34.45602681 34.45602862
 37.05920381 37.05920583 37.05920583 43.77313829 43.77313829 43.77314056
 45.95307258 72.90277926]
   1 (-0.000  0.000  0.500)   [-79.42946332 -58.05647278  -6.9840821   -4.87987386  -4.87987359
  -4.87986859  -4.46361486  -2.77974532  -2.77968881  -2.77968856
  -0.35631783  -0.12186663   0.09044527   0.09045765] [ 0.53337553  0.60479773  0.60480357  0.73689344  0.89750086  0.89750204
  0.90690309  0.94618589  0.94618636  1.0313468   1.26425148  1.3081265
  1.33485389  1.33485643  1.3892616   1.38926552  1.50203021  1.53680745
  1.53680946  1.6180563   1.61806337  1.72856929  1.77082037  1.77082105
  1.82796345  1.83825752  1.83826535  1.89672337  2.05524579  2.21500559
  2.21500988  2.24767532  2.26836188  2.26836372  2.37519663  2.53968811
  2.53968988  2.60404404  2.70520829  2.70521358  2.75663406  2.78817008
  2.81932037  2.81932424  2.9845618   3.01091731  3.01091794  3.43220704
  3.43220878  3.59398781  3.81522283  3.91969317  3.91969593  4.16060507
  5.77792528  5.77792582  5.95359648  5.95360189  6.08944901  8.24507251
  8.24507475  8.39551323  8.46098284  8.46098424  8.87731009 10.5695177
 10.56952019 10.61288938 11.23754096 11.44573933 11.44574265 13.9347613
 19.59117366 19.59745094 19.59745383 19.60049786 19.60049829 19.6006543
 19.60436129 23.41729293 23.41729344 23.51185677 23.51185887 23.58012665
 27.81935371 27.8253584  27.82536106 27.82774981 27.82774992 27.83185485
 27.837191   34.30861272 34.30861353 34.39193629 34.43021233 34.43021318
 36.67884874 36.67885044 36.67941144 43.35909143 43.62641143 43.62641335
 47.03230969 74.35223041]
   2 ( 0.000  0.500 -0.000)   [-79.42946332 -58.05647278  -6.9840821   -4.87987386  -4.87987359
  -4.87986859  -4.46361486  -2.77974532  -2.77968881  -2.77968856
  -0.35631783  -0.12186663   0.09044527   0.09045765] [ 0.53337553  0.60479773  0.60480357  0.73689344  0.89750086  0.89750204
  0.90690309  0.94618589  0.94618636  1.0313468   1.26425148  1.3081265
  1.33485389  1.33485643  1.3892616   1.38926552  1.50203021  1.53680745
  1.53680946  1.61805629  1.61806337  1.72856929  1.77082037  1.77082105
  1.82796345  1.83825752  1.83826535  1.89672337  2.05524578  2.21500559
  2.21500988  2.24767531  2.26836193  2.26836361  2.37519663  2.53968814
  2.53968981  2.60404404  2.7052083   2.70521357  2.75663406  2.78817007
  2.81932033  2.81932426  2.98456178  3.01091738  3.01091779  3.43220701
  3.4322088   3.59398781  3.81522282  3.91969317  3.91969593  4.16060506
  5.77792528  5.77792582  5.95359648  5.95360189  6.08944901  8.24507251
  8.24507475  8.39551323  8.46098285  8.46098422  8.87731009 10.56951769
 10.5695202  10.61288937 11.23754096 11.44573933 11.44574265 13.9347613
 19.59117366 19.59745094 19.59745383 19.60049786 19.60049829 19.6006543
 19.60436129 23.41729293 23.41729344 23.51185677 23.51185887 23.58012665
 27.81935371 27.8253584  27.82536106 27.82774981 27.82774992 27.83185485
 27.837191   34.30861272 34.30861353 34.39193629 34.43021233 34.43021318
 36.67884874 36.67885044 36.67941144 43.35909143 43.62641143 43.62641335
 47.03230969 74.35223041]
   3 ( 0.000  0.500  0.500)   [-7.94294636e+01 -5.80564730e+01 -6.98409109e+00 -4.87987446e+00
 -4.87987426e+00 -4.87986909e+00 -4.46361521e+00 -2.77973547e+00
 -2.77971727e+00 -2.77971708e+00 -3.21996313e-01 -1.14226760e-01
  3.07952595e-02  3.08003890e-02] [ 0.45938196  0.5051018   0.88955439  0.88955691  0.92854196  0.92854575
  0.93769979  0.95735077  1.01513126  1.06019829  1.20583109  1.23660357
  1.2366059   1.27657625  1.29510579  1.29510668  1.33309296  1.3872274
  1.51262464  1.57287692  1.69857168  1.69858017  1.80750875  1.84479298
  1.84480071  1.93471846  1.96916409  1.9910494   2.03753425  2.03753493
  2.165272    2.16527949  2.22797286  2.2914873   2.40967061  2.44573659
  2.46733693  2.46733851  2.68287072  2.72826085  2.7282634   2.8327028
  2.86801835  2.96326282  2.97877379  2.97877995  3.19048596  3.53719475
  3.55673557  3.55673761  3.60713321  4.00636929  4.00637112  4.14112347
  5.78518636  5.82891442  5.9292326   6.08334545  6.08334839  8.18083175
  8.20972846  8.20973101  8.21244848  8.40063164  9.1150722  10.48781968
 10.59592908 10.59593139 11.09265936 11.46246122 11.46246378 13.89344618
 19.59441407 19.59441634 19.59957417 19.60129307 19.6012936  19.6030345
 19.60322515 23.41635367 23.45143409 23.48833922 23.58696423 23.5869654
 27.82452464 27.82684338 27.82702612 27.82702856 27.83305915 27.83305969
 27.84367234 34.27540502 34.28845875 34.28845995 34.29012225 34.44312599
 36.56048071 36.69161801 36.6916194  43.24019423 43.65785262 43.65785411
 47.21768433 74.26294667]
   4 ( 0.500 -0.000 -0.000)   [-79.42946332 -58.05647278  -6.9840821   -4.87987386  -4.87987359
  -4.87986859  -4.46361486  -2.77974532  -2.77968881  -2.77968856
  -0.35631783  -0.12186663   0.09044527   0.09045765] [ 0.53337553  0.60479773  0.60480357  0.73689344  0.89750086  0.89750204
  0.90690309  0.94618589  0.94618636  1.0313468   1.26425148  1.3081265
  1.33485389  1.33485643  1.3892616   1.38926552  1.50203021  1.53680745
  1.53680946  1.61805629  1.61806336  1.72856929  1.77082037  1.77082105
  1.82796345  1.83825752  1.83826535  1.89672337  2.05524579  2.21500559
  2.21500988  2.24767531  2.26836184  2.26836367  2.37519663  2.53968808
  2.53968985  2.60404404  2.70520829  2.70521358  2.75663406  2.78817007
  2.81932035  2.81932423  2.98456178  3.01091727  3.01091786  3.43220703
  3.43220878  3.59398781  3.81522282  3.91969317  3.91969593  4.16060506
  5.77792528  5.77792581  5.95359648  5.95360189  6.08944901  8.24507251
  8.24507475  8.39551323  8.46098284  8.46098423  8.87731009 10.56951769
 10.56952019 10.61288937 11.23754096 11.44573933 11.44574265 13.93476129
 19.59117366 19.59745094 19.59745383 19.60049786 19.60049829 19.6006543
 19.60436129 23.41729293 23.41729344 23.51185677 23.51185887 23.58012665
 27.81935371 27.8253584  27.82536106 27.82774981 27.82774992 27.83185485
 27.837191   34.30861272 34.30861353 34.39193629 34.43021233 34.43021318
 36.67884874 36.67885044 36.67941144 43.35909143 43.62641143 43.62641335
 47.03230969 74.35223041]
   5 ( 0.500  0.000  0.500)   [-7.94294636e+01 -5.80564730e+01 -6.98409109e+00 -4.87987446e+00
 -4.87987426e+00 -4.87986909e+00 -4.46361521e+00 -2.77973547e+00
 -2.77971727e+00 -2.77971708e+00 -3.21996313e-01 -1.14226760e-01
  3.07952595e-02  3.08003890e-02] [ 0.45938196  0.5051018   0.88955439  0.88955691  0.92854196  0.92854575
  0.93769979  0.95735077  1.01513126  1.06019829  1.20583109  1.23660357
  1.2366059   1.27657625  1.29510579  1.29510668  1.33309296  1.3872274
  1.51262464  1.57287692  1.69857168  1.69858017  1.80750875  1.84479298
  1.84480071  1.93471846  1.96916409  1.9910494   2.03753425  2.03753493
  2.165272    2.16527948  2.22797286  2.2914873   2.40967061  2.44573657
  2.46733693  2.46733851  2.68287072  2.72826085  2.7282634   2.8327028
  2.86801835  2.96326281  2.97877379  2.97877995  3.19048596  3.53719475
  3.55673557  3.55673761  3.6071332   4.00636929  4.00637112  4.14112344
  5.78518636  5.82891442  5.9292326   6.08334545  6.08334839  8.18083175
  8.20972846  8.20973101  8.21244848  8.40063164  9.11507221 10.48781968
 10.59592907 10.59593139 11.09265936 11.46246122 11.46246378 13.89344618
 19.59441407 19.59441634 19.59957417 19.60129307 19.6012936  19.6030345
 19.60322515 23.41635367 23.45143409 23.48833922 23.58696423 23.5869654
 27.82452464 27.82684338 27.82702612 27.82702856 27.83305915 27.83305969
 27.84367234 34.27540502 34.28845875 34.28845995 34.29012225 34.44312599
 36.56048071 36.69161801 36.6916194  43.24019423 43.65785262 43.65785411
 47.21768433 74.26294667]
   6 ( 0.500  0.500 -0.000)   [-7.94294636e+01 -5.80564730e+01 -6.98409109e+00 -4.87987446e+00
 -4.87987426e+00 -4.87986909e+00 -4.46361521e+00 -2.77973547e+00
 -2.77971727e+00 -2.77971708e+00 -3.21996313e-01 -1.14226760e-01
  3.07952595e-02  3.08003890e-02] [ 0.45938196  0.5051018   0.88955439  0.88955691  0.92854196  0.92854575
  0.93769979  0.95735077  1.01513126  1.06019829  1.20583109  1.23660357
  1.2366059   1.27657625  1.29510579  1.29510668  1.33309295  1.3872274
  1.51262464  1.57287692  1.69857168  1.69858017  1.80750876  1.84479298
  1.84480071  1.93471846  1.96916409  1.9910494   2.03753425  2.03753493
  2.165272    2.16527949  2.22797286  2.2914873   2.40967061  2.44573655
  2.46733693  2.46733851  2.68287072  2.72826085  2.7282634   2.8327028
  2.86801835  2.96326279  2.97877379  2.97877995  3.19048596  3.53719475
  3.55673557  3.55673761  3.6071332   4.00636929  4.00637112  4.1411234
  5.78518636  5.82891442  5.9292326   6.08334545  6.08334839  8.18083175
  8.20972846  8.20973101  8.21244848  8.40063164  9.1150722  10.48781968
 10.59592907 10.59593139 11.09265936 11.46246122 11.46246378 13.89344618
 19.59441407 19.59441634 19.59957417 19.60129307 19.6012936  19.6030345
 19.60322515 23.41635367 23.45143409 23.48833922 23.58696423 23.5869654
 27.82452464 27.82684338 27.82702612 27.82702856 27.83305915 27.83305969
 27.84367234 34.27540502 34.28845875 34.28845995 34.29012225 34.44312599
 36.56048071 36.69161801 36.6916194  43.24019423 43.65785262 43.65785411
 47.21768433 74.26294666]
   7 ( 0.500  0.500  0.500)   [-79.42946332 -58.05647278  -6.9840821   -4.87987359  -4.87987359
  -4.87986886  -4.46361486  -2.77974559  -2.77968857  -2.77968857
  -0.35631555  -0.12187214   0.09045171   0.09045171] [ 0.53337304  0.60480655  0.60480655  0.73689388  0.89750045  0.89750045
  0.90689617  0.94618244  0.94618244  1.03134791  1.26425389  1.3081269
  1.3348561   1.3348561   1.38926349  1.38926349  1.502036    1.53681252
  1.53681253  1.61806501  1.61806501  1.7285709   1.77081838  1.77081838
  1.82796169  1.83825513  1.83825513  1.89672424  2.05524954  2.2150069
  2.21500691  2.24767516  2.26835816  2.26835825  2.37519306  2.53969227
  2.53969233  2.60404561  2.7052112   2.70521121  2.75662834  2.7881649
  2.81932119  2.81932122  2.98456199  3.01091521  3.01091532  3.43220796
  3.43220798  3.59399262  3.81522577  3.91969399  3.919694    4.16060513
  5.77792697  5.77792698  5.95359983  5.95359984  6.08944427  8.2450753
  8.2450753   8.39551608  8.46098046  8.46098047  8.87730791 10.5695206
 10.5695206  10.6128889  11.23754399 11.44573943 11.44573943 13.93476212
 19.59117666 19.59745124 19.59745124 19.60049743 19.60049743 19.60065631
 19.60435991 23.41729411 23.41729411 23.51185768 23.51185768 23.58012515
 27.81935041 27.82536066 27.82536066 27.82775094 27.82775094 27.83185313
 27.83719199 34.30861373 34.30861373 34.39193799 34.43021133 34.43021133
 36.67885055 36.67885055 36.67940943 43.35909325 43.62641145 43.62641145
 47.03230985 74.35223053]
    CPU time for get_k_kpts: make_kpt ki>=kj (0,*)      5.36 sec, wall time      0.17 sec
    CPU time for get_k_kpts: make_kpt ki>=kj (1,*)     14.07 sec, wall time      0.44 sec
    CPU time for get_k_kpts: make_kpt ki>=kj (2,*)     24.97 sec, wall time      0.79 sec
    CPU time for get_k_kpts: make_kpt ki>=kj (3,*)     29.64 sec, wall time      0.94 sec
    CPU time for get_k_kpts: make_kpt ki>=kj (4,*)     32.56 sec, wall time      1.02 sec
    CPU time for get_k_kpts: make_kpt ki>=kj (5,*)     40.22 sec, wall time      1.27 sec
    CPU time for get_k_kpts: make_kpt ki>=kj (6,*)     45.73 sec, wall time      1.45 sec
    CPU time for get_k_kpts: make_kpt ki>=kj (7,*)     53.73 sec, wall time      1.70 sec
Monkhorst pack size [2 2 2] ew_eta 2.0312209471041576 ew_cut 3.463973550287249
Ewald components = 0, -1.14616786107368, 1.03489448450362
    CPU time for get_j pass 1     18.93 sec, wall time      0.70 sec
    CPU time for get_j pass 2      5.44 sec, wall time      0.44 sec
    CPU time for vj and vk    275.07 sec, wall time      9.07 sec
Ewald components = 1.25967104982813e-135, -881.045459580493, 778.181077139905
E1 = (-615.4036776623211+1.2373963009600122e-16j)  E_coul = (135.49362861277382+1.3601163052537602e-17j)
cycle= 4 E= -582.774431490135  delta_E= -0.000337  |g|= 0.0196  |ddm|= 0.25
    CPU time for cycle= 4    278.74 sec, wall time      9.20 sec
diis-norm(errvec)=0.0584303
diis-c [-0.00202035-8.75811540e-47j  0.02595148-2.19512339e-31j
 -0.06760156+2.46789016e-31j -0.25943389+2.44296259e-30j
  1.30108397-2.47023927e-30j]
HOMO = 0.12434528669  LUMO = 0.45948218132
     k-point                  mo_energy
   0 ( 0.000  0.000  0.000)   [-79.43416105 -58.05216489  -6.98497898  -4.88080403  -4.88080385
  -4.88080385  -4.46191753  -2.77793129  -2.777931    -2.777931
  -0.44131198   0.12434102   0.12434529   0.12434529] [ 0.57293007  0.59950985  0.59950985  0.5995106   0.77880434  0.77880434
  0.83208493  0.90424661  0.90424661  0.90424762  1.12285375  1.42000814
  1.42000861  1.42000861  1.50597751  1.50597751  1.52792075  1.52792305
  1.52792305  1.66730658  1.66730658  1.66730782  1.88369972  1.88369972
  1.88370092  2.00374991  2.00374991  2.11147988  2.13004295  2.13004295
  2.13004459  2.24274394  2.24274394  2.24274394  2.32511875  2.42410031
  2.42410031  2.42410068  2.57739558  2.57739662  2.57739662  2.59785533
  2.59785533  2.76407347  3.05021358  3.05021507  3.05021507  3.51474859
  3.76050976  3.76050976  3.7605106   4.15265887  4.15265887  4.15265887
  5.81086813  5.81086813  5.92622493  5.92622748  5.92622748  8.24245466
  8.24245466  8.38202797  8.51564771  8.51564771  8.51564919 10.85734804
 10.85734928 10.85734928 11.59488969 11.59488969 11.59489088 13.25892979
 19.59343239 19.59343239 19.59343388 19.60106797 19.60106797 19.60106828
 19.61493968 23.44078103 23.44078103 23.49675668 23.49675746 23.49675746
 27.82141614 27.82141766 27.82141766 27.82292785 27.82292819 27.82292819
 27.83301698 34.30931758 34.30931758 34.45436794 34.45436794 34.45436864
 37.06206216 37.0620631  37.0620631  43.7706815  43.7706815  43.77068244
 45.95582287 72.90015953]
   1 (-0.000  0.000  0.500)   [-79.43416183 -58.05216542  -6.98500496  -4.88080752  -4.88080736
  -4.88080235  -4.46191943  -2.77801597  -2.77796033  -2.77796007
  -0.35593868  -0.12169288   0.09063893   0.09064309] [ 0.53350655  0.60510013  0.6051021   0.73677064  0.89776302  0.89776386
  0.90683877  0.94626821  0.94626928  1.03157135  1.26433734  1.30827672
  1.33495395  1.33495543  1.38940535  1.38940742  1.50198486  1.53695782
  1.5369582   1.61825198  1.61825516  1.72874912  1.77095459  1.77095508
  1.82798904  1.83837723  1.83838016  1.89688035  2.05533648  2.21516014
  2.21516222  2.24777071  2.26851282  2.26851345  2.37539412  2.53984005
  2.53984098  2.60438156  2.70542067  2.70542233  2.75694981  2.78848182
  2.81952315  2.81952474  2.98463524  3.01108073  3.01108117  3.4326986
  3.4326998   3.59424361  3.81556768  3.9199855   3.91998619  4.16081923
  5.77905261  5.77905279  5.95472809  5.95473059  6.09056292  8.24489847
  8.24489937  8.39532861  8.46082053  8.4608211   8.8786337  10.57097333
 10.57097465 10.6143709  11.23713819 11.44534937 11.44535058 13.93409534
 19.59274623 19.5990235  19.59902477 19.60206853 19.60206872 19.60222523
 19.60593408 23.41947587 23.41947609 23.51403986 23.51404079 23.58230628
 27.81862555 27.82463141 27.8246325  27.82702106 27.82702111 27.83112519
 27.83646614 34.3069435  34.30694381 34.3902721  34.4285525  34.42855283
 36.6817142  36.681715   36.68227971 43.35667181 43.62395284 43.62395363
 47.03503814 74.34960069]
   2 ( 0.000  0.500 -0.000)   [-79.43416183 -58.05216542  -6.98500496  -4.88080752  -4.88080736
  -4.88080235  -4.46191943  -2.77801597  -2.77796033  -2.77796007
  -0.35593868  -0.12169288   0.09063893   0.09064309] [ 0.53350655  0.60510013  0.6051021   0.73677064  0.89776302  0.89776386
  0.90683877  0.94626821  0.94626928  1.03157135  1.26433734  1.30827672
  1.33495396  1.33495543  1.38940535  1.38940742  1.50198486  1.53695782
  1.5369582   1.61825197  1.61825516  1.72874912  1.77095459  1.77095508
  1.82798904  1.83837723  1.83838016  1.89688035  2.05533648  2.21516014
  2.21516222  2.2477707   2.26851288  2.26851334  2.37539412  2.53984008
  2.53984092  2.60438156  2.70542067  2.70542232  2.75694981  2.78848181
  2.81952311  2.81952476  2.98463523  3.0110808   3.01108103  3.43269857
  3.43269981  3.59424361  3.81556767  3.91998551  3.91998618  4.16081922
  5.77905261  5.77905279  5.95472808  5.95473059  6.09056292  8.24489847
  8.24489937  8.39532861  8.46082054  8.46082109  8.8786337  10.57097332
 10.57097465 10.6143709  11.23713819 11.44534937 11.44535058 13.93409534
 19.59274623 19.5990235  19.59902477 19.60206853 19.60206872 19.60222523
 19.60593408 23.41947587 23.41947609 23.51403986 23.51404079 23.58230628
 27.81862555 27.82463141 27.8246325  27.82702106 27.82702111 27.83112519
 27.83646614 34.3069435  34.30694381 34.3902721  34.4285525  34.42855283
 36.6817142  36.681715   36.68227971 43.35667181 43.62395284 43.62395363
 47.03503814 74.34960069]
[...]
 10.57193096 10.61535445 11.23659017 11.44481451 11.44481469 13.93355091
 19.59387095 19.60014802 19.60014825 19.60319223 19.60319227 19.60334901
 19.60705809 23.4205154  23.42051544 23.51507854 23.51507871 23.58334326
 27.81801675 27.82402346 27.82402361 27.82641235 27.82641235 27.83051609
 27.83585936 34.30658396 34.306584   34.38991319 34.42819498 34.42819502
 36.68264225 36.68264241 36.68320875 43.35654958 43.62382292 43.62382303
 47.03593386 74.34952168]
   5 ( 0.500  0.000  0.500)   [-7.94337176e+01 -5.80513958e+01 -6.98559079e+00 -4.88134148e+00
 -4.88134148e+00 -4.88133604e+00 -4.46084478e+00 -2.77692834e+00
 -2.77691087e+00 -2.77691083e+00 -3.21782607e-01 -1.14252003e-01
  3.09143204e-02  3.09144568e-02] [ 0.45956049  0.50528732  0.88963875  0.889639    0.92883535  0.92883549
  0.93762664  0.95772244  1.0153279   1.06035383  1.20591806  1.23657399
  1.23657405  1.27654535  1.2952332   1.29523327  1.33310363  1.38755117
  1.51271119  1.57353415  1.69881346  1.6988138   1.807387    1.84486155
  1.8448617   1.93477416  1.96955035  1.99110179  2.03760591  2.03760593
  2.16557767  2.16557783  2.22806901  2.29186396  2.40948473  2.44560695
  2.46737163  2.46737177  2.68280569  2.72824145  2.72824157  2.8326869
  2.86771595  2.9638342   2.97911596  2.97911629  3.19082876  3.53717874
  3.55730454  3.55730462  3.60802678  4.00656324  4.00656325  4.14055216
  5.78734594  5.83108562  5.93137007  6.08547412  6.08547435  8.17997696
  8.20888514  8.20888529  8.21159852  8.4002027   9.11694845 10.49030539
 10.59837407 10.59837429 11.09165716 11.46148393 11.46148406 13.89223712
 19.59711128 19.59711146 19.60226845 19.60398743 19.60398747 19.60572993
 19.60592275 23.41957513 23.4546543  23.49156019 23.59018286 23.59018296
 27.82318864 27.82550507 27.8256913  27.82569143 27.83172137 27.83172141
 27.84234091 34.27337461 34.28643525 34.28643531 34.2880926  34.44110693
 36.5642797  36.69541728 36.6954174  43.23760317 43.65525866 43.65525874
 47.22136309 74.26023608]
   6 ( 0.500  0.500 -0.000)   [-7.94337176e+01 -5.80513958e+01 -6.98559079e+00 -4.88134148e+00
 -4.88134148e+00 -4.88133604e+00 -4.46084478e+00 -2.77692834e+00
 -2.77691087e+00 -2.77691083e+00 -3.21782607e-01 -1.14252003e-01
  3.09143204e-02  3.09144568e-02] [ 0.45956049  0.50528732  0.88963875  0.889639    0.92883535  0.92883549
  0.93762664  0.95772244  1.0153279   1.06035383  1.20591806  1.23657399
  1.23657405  1.27654536  1.2952332   1.29523327  1.33310363  1.38755117
  1.51271119  1.57353415  1.69881346  1.6988138   1.80738701  1.84486155
  1.8448617   1.93477416  1.96955035  1.99110179  2.03760591  2.03760593
  2.16557767  2.16557783  2.22806902  2.29186397  2.40948473  2.44560693
  2.46737163  2.46737177  2.68280569  2.72824145  2.72824157  2.8326869
  2.86771595  2.96383418  2.97911596  2.97911629  3.19082876  3.53717874
  3.55730454  3.55730462  3.60802678  4.00656324  4.00656325  4.14055212
  5.78734594  5.83108562  5.93137007  6.08547412  6.08547435  8.17997696
  8.20888514  8.20888529  8.21159852  8.4002027   9.11694845 10.49030539
 10.59837407 10.59837429 11.09165716 11.46148393 11.46148406 13.89223712
 19.59711128 19.59711146 19.60226845 19.60398743 19.60398747 19.60572993
 19.60592275 23.41957513 23.4546543  23.49156019 23.59018286 23.59018296
 27.82318864 27.82550507 27.8256913  27.82569143 27.83172137 27.83172141
 27.84234091 34.27337461 34.28643525 34.28643531 34.2880926  34.44110693
 36.5642797  36.69541728 36.6954174  43.23760317 43.65525866 43.65525874
 47.22136309 74.26023608]
   7 ( 0.500  0.500  0.500)   [-79.43371732 -58.05139564  -6.98558188  -4.8813407   -4.8813407
  -4.88133566  -4.46084415  -2.77693826  -2.77688274  -2.77688274
  -0.35609763  -0.12181263   0.09045889   0.09045889] [ 0.53348017  0.60520089  0.60520089  0.73678303  0.89775764  0.89775764
  0.90672438  0.94632782  0.94632782  1.03160142  1.26434724  1.30843841
  1.33488029  1.33488029  1.38954497  1.38954497  1.50197824  1.53688247
  1.53688248  1.6182895   1.61828951  1.72884905  1.77096902  1.77096902
  1.82785676  1.8385821   1.8385821   1.89708854  2.05547642  2.21521335
  2.21521335  2.24767814  2.26850536  2.26850545  2.37518329  2.53953958
  2.53953963  2.60426706  2.70512061  2.70512062  2.75707382  2.78842512
  2.81932943  2.81932946  2.98431384  3.01077501  3.01077512  3.43301388
  3.4330139   3.59422562  3.81567972  3.91993494  3.91993495  4.16060339
  5.78008628  5.78008629  5.9557393   5.95573931  6.09154677  8.24422096
  8.24422096  8.39464904  8.4601559   8.46015591  8.87955424 10.57193098
 10.57193098 10.61535428 11.23659036 11.4448145  11.4448145  13.93355097
 19.59387119 19.60014804 19.60014804 19.6031922  19.6031922  19.60334917
 19.60705798 23.42051549 23.42051549 23.51507861 23.51507861 23.58334313
 27.81801657 27.82402359 27.82402359 27.82641241 27.82641241 27.83051599
 27.83585942 34.30658401 34.30658401 34.38991328 34.42819492 34.42819492
 36.68264241 36.68264241 36.68320859 43.35654968 43.62382292 43.62382292
 47.03593388 74.34952169]
    CPU time for get_k_kpts: make_kpt ki>=kj (0,*)      4.78 sec, wall time      0.15 sec
    CPU time for get_k_kpts: make_kpt ki>=kj (1,*)     15.75 sec, wall time      0.50 sec
    CPU time for get_k_kpts: make_kpt ki>=kj (2,*)     21.29 sec, wall time      0.67 sec
    CPU time for get_k_kpts: make_kpt ki>=kj (3,*)     28.67 sec, wall time      0.90 sec
    CPU time for get_k_kpts: make_kpt ki>=kj (4,*)     32.68 sec, wall time      1.03 sec
    CPU time for get_k_kpts: make_kpt ki>=kj (5,*)     40.70 sec, wall time      1.28 sec
    CPU time for get_k_kpts: make_kpt ki>=kj (6,*)     46.36 sec, wall time      1.46 sec
    CPU time for get_k_kpts: make_kpt ki>=kj (7,*)     55.42 sec, wall time      1.74 sec
Monkhorst pack size [2 2 2] ew_eta 2.0312209471041576 ew_cut 3.463973550287249
Ewald components = 0, -1.14616786107368, 1.03489448450362
    CPU time for get_j pass 1     16.96 sec, wall time      0.63 sec
    CPU time for get_j pass 2      5.42 sec, wall time      0.47 sec
    CPU time for vj and vk    272.51 sec, wall time      8.97 sec
Ewald components = 1.25967104982813e-135, -881.045459580493, 778.181077139905
E1 = (-615.4127506889242+1.237453422829431e-16j)  E_coul = (135.5026484337054+1.3542339753453512e-17j)
cycle= 7 E= -582.774484695807  delta_E= -8.08e-08  |g|= 9.27e-05  |ddm|= 0.00595
    CPU time for cycle= 7    276.54 sec, wall time      9.10 sec
HOMO = 0.124150376272  LUMO = 0.459562354484
     k-point                  mo_energy
   0 ( 0.000  0.000  0.000)   [-79.43370928 -58.05138379  -6.98556823  -4.88134739  -4.88134739
  -4.88134738  -4.46084111  -2.77685205  -2.77685202  -2.77685202
  -0.44147846   0.12415      0.12415038   0.12415038] [ 0.57285392  0.59958616  0.59958616  0.5995864   0.77883353  0.77883353
  0.83214629  0.90430086  0.90430086  0.90430089  1.12282588  1.41998516
  1.41998523  1.41998523  1.50599255  1.50599255  1.52789714  1.52789723
  1.52789723  1.66738648  1.66738648  1.66738663  1.88380797  1.88380797
  1.88380798  2.00385269  2.00385269  2.11162743  2.13009111  2.13009116
  2.13009117  2.24286842  2.24286842  2.24286847  2.32527205  2.42381723
  2.42381723  2.4238173   2.57719856  2.57719857  2.57719857  2.59753236
  2.59753236  2.76377285  3.05002926  3.05002929  3.05002929  3.51459057
  3.76043606  3.76043606  3.76043608  4.15283924  4.15283939  4.15283939
  5.81191425  5.81191425  5.92723479  5.92723502  5.92723502  8.24176689
  8.24176689  8.38293848  8.51497751  8.51497751  8.51497766 10.8582203
 10.85822045 10.85822045 11.59441188 11.59441188 11.59441195 13.25837408
 19.59455757 19.59455757 19.59455773 19.60219209 19.60219209 19.60219212
 19.61606379 23.44182324 23.44182324 23.49779846 23.49779855 23.49779855
 27.82079537 27.8207955  27.8207955  27.82230571 27.82230574 27.82230574
 27.83239641 34.30894876 34.30894876 34.45400143 34.45400143 34.45400149
 37.06299107 37.06299117 37.06299117 43.77054775 43.77054775 43.77054783
 45.95672959 72.90007451]
   1 (-0.000  0.000  0.500)   [-79.43371005 -58.05138433  -6.98559416  -4.88135092  -4.88135091
  -4.88134589  -4.46084326  -2.77693644  -2.77688101  -2.77688099
  -0.35609746  -0.12181037   0.09045926   0.0904595 ] [ 0.53347944  0.60520098  0.60520114  0.73678423  0.89775613  0.89775627
  0.90672379  0.94632793  0.94632794  1.03159867  1.2643466   1.30843802
  1.33487921  1.33487929  1.38954478  1.38954488  1.50197759  1.53688117
  1.53688125  1.61828746  1.61828765  1.72884874  1.77096819  1.77096829
  1.8278552   1.83858225  1.83858239  1.89708845  2.05547598  2.21521264
  2.21521283  2.24767738  2.26850454  2.26850465  2.3751823   2.53953665
  2.53953677  2.60426366  2.7051187   2.70511886  2.75707275  2.78842373
  2.81932793  2.8193281   2.98431155  3.01077179  3.01077185  3.43301262
  3.43301271  3.59422363  3.81567787  3.91993225  3.91993231  4.16059965
  5.78008606  5.78008607  5.95573899  5.95573923  6.09154689  8.24420923
  8.24420931  8.3946376   8.46014471  8.46014475  8.87955491 10.57193176
 10.57193191 10.61535562 11.23658123 11.44480578 11.4448059  13.93354115
 19.5938713  19.60014838 19.60014852 19.60319257 19.60319259 19.60334936
 19.6070584  23.42051804 23.42051806 23.51508118 23.51508128 23.58334584
 27.81800348 27.82401023 27.82401033 27.8263991  27.8263991  27.83050283
 27.83584612 34.30657465 34.30657468 34.38990389 34.42818568 34.42818571
 36.68264793 36.68264802 36.68321438 43.3565459  43.62381919 43.62381926
 47.03593925 74.34951963]
   2 ( 0.000  0.500 -0.000)   [-79.43371005 -58.05138433  -6.98559416  -4.88135092  -4.88135091
  -4.88134589  -4.46084326  -2.77693644  -2.77688101  -2.77688099
  -0.35609746  -0.12181037   0.09045926   0.0904595 ] [ 0.53347944  0.60520098  0.60520114  0.73678423  0.89775613  0.89775627
  0.90672379  0.94632793  0.94632794  1.03159867  1.2643466   1.30843801
  1.33487921  1.33487929  1.38954478  1.38954488  1.50197759  1.53688117
  1.53688125  1.61828745  1.61828765  1.72884874  1.77096819  1.77096829
  1.8278552   1.83858225  1.83858239  1.89708845  2.05547598  2.21521264
  2.21521283  2.24767737  2.26850452  2.26850461  2.3751823   2.53953667
  2.53953671  2.60426366  2.70511871  2.70511886  2.75707275  2.78842372
  2.81932789  2.81932812  2.98431154  3.01077165  3.01077192  3.43301259
  3.43301272  3.59422363  3.81567786  3.91993226  3.9199323   4.16059963
  5.78008607  5.78008607  5.95573899  5.95573923  6.09154689  8.24420923
  8.24420931  8.3946376   8.46014472  8.46014474  8.87955491 10.57193176
 10.57193191 10.61535562 11.23658123 11.44480578 11.4448059  13.93354114
 19.5938713  19.60014838 19.60014852 19.60319257 19.60319259 19.60334936
 19.6070584  23.42051804 23.42051806 23.51508118 23.51508128 23.58334584
 27.81800348 27.82401023 27.82401033 27.8263991  27.8263991  27.83050283
 27.83584612 34.30657465 34.30657468 34.38990389 34.42818568 34.4281857
 36.68264793 36.68264802 36.68321438 43.3565459  43.62381919 43.62381926
 47.03593925 74.34951963]
   3 ( 0.000  0.500  0.500)   [-7.94337103e+01 -5.80513845e+01 -6.98560307e+00 -4.88135170e+00
 -4.88135170e+00 -4.88134626e+00 -4.46084388e+00 -2.77692657e+00
 -2.77690909e+00 -2.77690908e+00 -3.21782527e-01 -1.14251928e-01
  3.09154601e-02  3.09155564e-02] [ 0.45956235  0.50528879  0.88963897  0.88963912  0.92883243  0.92883253
  0.93762497  0.95772104  1.01532828  1.06035148  1.20591602  1.23657471
  1.23657474  1.27654607  1.29523339  1.29523343  1.33310405  1.38755101
  1.51270833  1.57353292  1.69881188  1.69881207  1.80738744  1.84486161
  1.84486168  1.93477322  1.96955068  1.99109864  2.03760562  2.03760565
  2.16557619  2.16557628  2.22806848  2.29186291  2.40948093  2.44560674
  2.46736938  2.46736949  2.68280407  2.72823967  2.72823974  2.83268522
  2.86771272  2.96383234  2.97911408  2.97911428  3.19082635  3.53717592
  3.55730327  3.55730333  3.60802612  4.00656063  4.00656065  4.14054874
  5.78734584  5.83108561  5.93136979  6.08547405  6.08547419  8.17996529
  8.20887353  8.20887363  8.21158691  8.40019289  9.11694758 10.49030664
 10.59837521 10.59837534 11.09164805 11.46147514 11.46147521 13.8922273
 19.59711165 19.59711176 19.60226878 19.60398777 19.6039878  19.60573027
 19.60592307 23.41957775 23.45465692 23.49156279 23.59018549 23.59018554
 27.82317539 27.82549181 27.82567806 27.82567815 27.83170813 27.83170815
 27.84232766 34.27336529 34.28642594 34.28642598 34.28808329 34.44109762
 36.56428535 36.69542295 36.69542302 43.23759942 43.65525493 43.65525498
 47.22136854 74.260234  ]
   4 ( 0.500 -0.000 -0.000)   [-79.43371005 -58.05138433  -6.98559416  -4.88135092  -4.88135091
  -4.88134589  -4.46084326  -2.77693644  -2.77688101  -2.77688099
  -0.35609746  -0.12181037   0.09045926   0.0904595 ] [ 0.53347944  0.60520098  0.60520114  0.73678423  0.89775613  0.89775627
  0.90672379  0.94632793  0.94632794  1.03159867  1.2643466   1.30843801
  1.33487921  1.33487929  1.38954478  1.38954488  1.50197759  1.53688117
  1.53688125  1.61828746  1.61828765  1.72884874  1.77096819  1.77096829
  1.8278552   1.83858225  1.83858239  1.89708845  2.05547598  2.21521264
  2.21521283  2.24767737  2.26850451  2.26850459  2.3751823   2.53953662
  2.53953674  2.60426366  2.7051187   2.70511886  2.75707275  2.78842372
  2.81932791  2.81932809  2.98431154  3.01077173  3.0107718   3.43301261
  3.4330127   3.59422363  3.81567786  3.91993225  3.91993231  4.16059963
  5.78008606  5.78008607  5.95573899  5.95573923  6.09154689  8.24420923
  8.24420931  8.3946376   8.46014471  8.46014474  8.87955491 10.57193176
 10.57193191 10.61535562 11.23658123 11.44480578 11.4448059  13.93354114
 19.5938713  19.60014838 19.60014852 19.60319257 19.60319259 19.60334936
 19.6070584  23.42051804 23.42051806 23.51508118 23.51508128 23.58334584
 27.81800348 27.82401023 27.82401033 27.8263991  27.8263991  27.83050283
 27.83584612 34.30657465 34.30657468 34.38990389 34.42818568 34.42818571
 36.68264793 36.68264802 36.68321438 43.3565459  43.62381919 43.62381926
 47.03593925 74.34951963]
   5 ( 0.500  0.000  0.500)   [-7.94337103e+01 -5.80513845e+01 -6.98560307e+00 -4.88135170e+00
 -4.88135170e+00 -4.88134626e+00 -4.46084388e+00 -2.77692657e+00
 -2.77690909e+00 -2.77690908e+00 -3.21782527e-01 -1.14251928e-01
  3.09154601e-02  3.09155564e-02] [ 0.45956235  0.50528879  0.88963897  0.88963912  0.92883243  0.92883253
  0.93762497  0.95772104  1.01532828  1.06035148  1.20591602  1.23657471
  1.23657474  1.27654607  1.29523339  1.29523343  1.33310405  1.38755101
  1.51270833  1.57353292  1.69881188  1.69881207  1.80738744  1.84486161
  1.84486168  1.93477322  1.96955068  1.99109864  2.03760562  2.03760564
  2.16557619  2.16557628  2.22806848  2.29186292  2.40948093  2.44560672
  2.46736938  2.46736949  2.68280407  2.72823967  2.72823974  2.83268522
  2.86771272  2.96383233  2.97911408  2.97911428  3.19082636  3.53717591
  3.55730327  3.55730333  3.60802611  4.00656063  4.00656065  4.14054871
  5.78734584  5.83108561  5.93136979  6.08547405  6.08547419  8.17996529
  8.20887353  8.20887363  8.21158691  8.40019289  9.11694758 10.49030664
 10.59837521 10.59837534 11.09164805 11.46147514 11.46147521 13.8922273
 19.59711165 19.59711176 19.60226878 19.60398777 19.6039878  19.60573027
 19.60592307 23.41957775 23.45465692 23.49156279 23.59018549 23.59018554
 27.82317539 27.82549181 27.82567806 27.82567815 27.83170813 27.83170815
 27.84232766 34.27336529 34.28642594 34.28642598 34.28808329 34.44109762
 36.56428535 36.69542295 36.69542302 43.23759942 43.65525493 43.65525498
 47.22136854 74.260234  ]
   6 ( 0.500  0.500 -0.000)   [-7.94337103e+01 -5.80513845e+01 -6.98560307e+00 -4.88135170e+00
 -4.88135170e+00 -4.88134626e+00 -4.46084388e+00 -2.77692657e+00
 -2.77690909e+00 -2.77690908e+00 -3.21782527e-01 -1.14251928e-01
  3.09154601e-02  3.09155564e-02] [ 0.45956235  0.50528879  0.88963897  0.88963912  0.92883243  0.92883253
  0.93762497  0.95772104  1.01532828  1.06035148  1.20591602  1.23657471
  1.23657474  1.27654607  1.29523339  1.29523343  1.33310405  1.38755101
  1.51270833  1.57353292  1.69881188  1.69881207  1.80738744  1.84486161
  1.84486168  1.93477322  1.96955068  1.99109864  2.03760562  2.03760564
  2.16557619  2.16557628  2.22806848  2.29186292  2.40948093  2.4456067
  2.46736938  2.46736949  2.68280407  2.72823967  2.72823974  2.83268522
  2.86771272  2.96383232  2.97911408  2.97911428  3.19082635  3.53717592
  3.55730327  3.55730333  3.6080261   4.00656063  4.00656065  4.14054867
  5.78734584  5.83108561  5.93136979  6.08547405  6.08547419  8.17996529
  8.20887353  8.20887363  8.21158691  8.40019289  9.11694758 10.49030664
 10.59837521 10.59837534 11.09164805 11.46147514 11.46147521 13.8922273
 19.59711165 19.59711176 19.60226878 19.60398777 19.6039878  19.60573027
 19.60592307 23.41957775 23.45465692 23.49156279 23.59018549 23.59018554
 27.82317539 27.82549181 27.82567806 27.82567815 27.83170813 27.83170815
 27.84232766 34.27336529 34.28642594 34.28642598 34.28808329 34.44109762
 36.56428535 36.69542295 36.69542302 43.23759942 43.65525493 43.65525498
 47.22136854 74.260234  ]
   7 ( 0.500  0.500  0.500)   [-79.43371005 -58.05138433  -6.98559416  -4.88135092  -4.88135092
  -4.88134589  -4.46084326  -2.77693647  -2.77688099  -2.77688099
  -0.35609744  -0.12181049   0.09045946   0.09045946] [ 0.53347943  0.60520112  0.60520112  0.73678426  0.89775618  0.89775618
  0.90672366  0.94632778  0.94632778  1.03159864  1.2643467   1.30843798
  1.3348793   1.3348793   1.38954484  1.38954484  1.50197768  1.53688129
  1.53688129  1.61828768  1.61828769  1.72884889  1.77096818  1.77096818
  1.82785518  1.83858215  1.83858215  1.89708828  2.05547612  2.21521272
  2.21521272  2.24767739  2.26850436  2.26850445  2.37518226  2.53953687
  2.53953692  2.60426389  2.70511875  2.70511876  2.7570726   2.7884235
  2.81932792  2.81932795  2.98431146  3.0107717   3.01077181  3.4330126
  3.43301263  3.59422354  3.81567808  3.9199323   3.91993231  4.1605997
  5.78008613  5.78008613  5.95573913  5.95573913  6.09154668  8.24420934
  8.24420934  8.39463766  8.46014462  8.46014463  8.87955485 10.57193193
 10.57193193 10.61535552 11.23658135 11.44480577 11.44480577 13.9335412
 19.59387145 19.6001484  19.6001484  19.60319255 19.60319255 19.60334946
 19.60705834 23.42051809 23.42051809 23.51508122 23.51508122 23.58334577
 27.81800336 27.82401031 27.82401031 27.82639914 27.82639914 27.83050277
 27.83584615 34.30657469 34.30657469 34.38990394 34.42818564 34.42818564
 36.68264803 36.68264803 36.68321428 43.35654597 43.62381919 43.62381919
 47.03593926 74.34951963]
    CPU time for get_k_kpts: make_kpt ki>=kj (0,*)      4.80 sec, wall time      0.15 sec
    CPU time for get_k_kpts: make_kpt ki>=kj (1,*)     15.39 sec, wall time      0.49 sec
    CPU time for get_k_kpts: make_kpt ki>=kj (2,*)     20.67 sec, wall time      0.66 sec
    CPU time for get_k_kpts: make_kpt ki>=kj (3,*)     26.71 sec, wall time      0.84 sec
    CPU time for get_k_kpts: make_kpt ki>=kj (4,*)     35.12 sec, wall time      1.10 sec
    CPU time for get_k_kpts: make_kpt ki>=kj (5,*)     39.63 sec, wall time      1.26 sec
    CPU time for get_k_kpts: make_kpt ki>=kj (6,*)     44.75 sec, wall time      1.42 sec
    CPU time for get_k_kpts: make_kpt ki>=kj (7,*)     50.76 sec, wall time      1.61 sec
Monkhorst pack size [2 2 2] ew_eta 2.0312209471041576 ew_cut 3.463973550287249
Ewald components = 0, -1.14616786107368, 1.03489448450362
    CPU time for get_j pass 1     18.84 sec, wall time      0.71 sec
    CPU time for get_j pass 2      5.65 sec, wall time      0.47 sec
    CPU time for vj and vk    266.81 sec, wall time      8.85 sec
Ewald components = 1.25967104982813e-135, -881.045459580493, 778.181077139905
E1 = (-615.4127438523664+1.237452843899803e-16j)  E_coul = (135.502641596399+1.3542803550102757e-17j)
Extra cycle  E= -582.774484696555  delta_E= -7.49e-10  |g|= 3.1e-05  |ddm|= 0.00143
    CPU time for scf_cycle  46866.76 sec, wall time   1559.64 sec
    CPU time for SCF  46866.81 sec, wall time   1559.68 sec
converged SCF energy = -582.774484696555
