#INFO: **** input file is /burg/ccce/users/eav2136/projects/core_level_spectroscopy/01_peommp2_cbe/meanfield.py ****
#!/usr/bin/env python
import json
from pyscf.pbc import gto, scf
from pyscf.pbc.tools import lattice, pyscf_ase
from pyscf.pbc.scf import chkfile
from fileutils import load, dump
import sys

material = load("data/{}".format(sys.argv[1]))
# Create Cell
cell = gto.Cell()
ase_atom = lattice.get_ase_atom(material["formula"])
cell.atom = pyscf_ase.ase_atoms_to_pyscf(ase_atom)
cell.a = ase_atom.cell[:]
cell.unit = "B"
cell.basis = material["basis"]
cell.exp_to_discard = material["exp_to_discard"]
cell.verbose = 7
cell.build()

# Mean Field
kdensity = material["kdensity"]
kmesh = [kdensity, kdensity, kdensity]
kpts = cell.make_kpts(kmesh, scaled_center=material["vb_scaled_center"])
mymf = scf.KRHF(cell, kpts=kpts, exxdiv="ewald")
mymf.chkfile = "data/{}".format(material["chk"])
mymf = mymf.density_fit()
mymf.with_df._cderi_to_save = "data/{}".format(material["cderi"])
ekrhf = mymf.kernel()
convergence = mymf.converged
mymf_data = dict([("ekrhf", float(ekrhf)),
                  ("convergence", bool(convergence))])
dump(mymf_data, "data/{}".format(material["ekrhf"]))
#INFO: ******************** input file end ********************


<<<<<<< HEAD
<<<<<<< HEAD
<<<<<<< HEAD
<<<<<<< HEAD
=======
>>>>>>> b0ebe15b9cb21f72d3133d30b88ad83ae944b1df
=======
>>>>>>> cluster
System: uname_result(system='Linux', node='g150', release='4.18.0-193.el8.x86_64', version='#1 SMP Fri Mar 27 14:35:58 UTC 2020', machine='x86_64')  Threads 32
Python 3.10.12 (main, Jul 29 2023, 11:27:27) [GCC 13.2.0]
numpy 1.25.1  scipy 1.10.1
Date: Fri Feb  2 12:04:48 2024
<<<<<<< HEAD
=======
System: uname_result(system='Linux', node='g108', release='4.18.0-193.el8.x86_64', version='#1 SMP Fri Mar 27 14:35:58 UTC 2020', machine='x86_64')  Threads 32
Python 3.10.12 (main, Jul 29 2023, 11:27:27) [GCC 13.2.0]
numpy 1.25.1  scipy 1.10.1
Date: Thu Jan 25 12:27:01 2024
>>>>>>> f0983ef5bf9ad467b05de206ad1aa900b1c074f6
<<<<<<< HEAD
=======
System: uname_result(system='Linux', node='g150', release='4.18.0-193.el8.x86_64', version='#1 SMP Fri Mar 27 14:35:58 UTC 2020', machine='x86_64')  Threads 32
Python 3.10.12 (main, Jul 29 2023, 11:27:27) [GCC 13.2.0]
numpy 1.25.1  scipy 1.10.1
Date: Fri Feb  2 12:04:48 2024
>>>>>>> cluster
=======
>>>>>>> b0ebe15b9cb21f72d3133d30b88ad83ae944b1df
=======
>>>>>>> cluster
PySCF version 2.0.1
PySCF path  /burg/berkelbach/users/eav2136/builds/pyscf/projected-cvs/pyscf
GIT ORIG_HEAD 0bfbc692adf3ea63b8a509210433219cd1c472a2
GIT HEAD (branch projected-cvs) e14caaa2dddc538b9be2d86f01e5b456fc92da36

[ENV] PYSCF_TMPDIR /burg/ccce/users/eav2136/projects/core_level_spectroscopy/01_peommp2_cbe/tmp
[ENV] PYSCF_MAX_MEMORY 700000
[CONFIG] DEBUG = False
[CONFIG] MAX_MEMORY = 700000
[CONFIG] TMPDIR = /burg/ccce/users/eav2136/projects/core_level_spectroscopy/01_peommp2_cbe/tmp
[CONFIG] UNIT = angstrom
[CONFIG] VERBOSE = 3
[CONFIG] conf_file = None
[INPUT] verbose = 7
[INPUT] max_memory = 700000 
[INPUT] num. atoms = 2
[INPUT] num. electrons = 28
[INPUT] charge = 0
[INPUT] spin (= nelec alpha-beta = 2S) = 0
[INPUT] symmetry False subgroup None
[INPUT] Mole.unit = B
[INPUT]  1 Al     0.000000000000   0.000000000000   0.000000000000 AA    0.000000000000   0.000000000000   0.000000000000 Bohr
[INPUT]  2 P      1.362749902239   1.362749902239   1.362749902239 AA    2.575224091510   2.575224091510   2.575224091510 Bohr
[INPUT] ---------------- BASIS SET ---------------- 
[INPUT] l, kappa, [nprim/nctr], expnt,             c_1 c_2 ...
<<<<<<< HEAD
<<<<<<< HEAD
<<<<<<< HEAD
<<<<<<< HEAD
=======
>>>>>>> b0ebe15b9cb21f72d3133d30b88ad83ae944b1df
=======
>>>>>>> cluster
[INPUT] P
[INPUT] 0    0    [13   /3   ]  312400            5.7696e-05 -1.56709e-05 4.30631e-06
                                46800             0.000448296 -0.000121724 3.34194e-05
                                10650             0.00234939 -0.000639672 0.000175885
                                3018              0.00978265 -0.00267426 0.00073434
                                986.8             0.0341467 -0.00949831 0.00261775
                                357.4             0.100204 -0.0289349 0.00797852
                                139.6             0.234372 -0.0745121 0.020794
                                57.63             0.382434 -0.149938 0.0424446
                                24.6              0.318088 -0.189467 0.0563436
                                10.12             0.0707788 0.036327 -0.0127358
                                4.283             -0.00181799 0.528816 -0.196495
                                1.805             0.0021618 0.519115 -0.353555
                                0.2782            0.000432297 -0.00925695 0.700912
[INPUT] 0    0    [1    /1   ]  0.6158               1
[INPUT] 0    0    [1    /1   ]  0.1055               1
[INPUT] 1    0    [7    /2   ]  504.9             0.00233728 -0.000555236
                                119.4             0.018541 -0.00445913
                                37.96             0.0849693 -0.020635
                                13.95             0.244615 -0.0617694
                                5.457             0.422766 -0.108924
                                2.177             0.368439 -0.105599
                                0.2877            -0.00379005 0.576981
[INPUT] 1    0    [1    /1   ]  0.801                1
[INPUT] 1    0    [1    /1   ]  0.09714              1
[INPUT] 2    0    [1    /1   ]  0.216                1
[INPUT] 2    0    [1    /1   ]  0.652                1
[INPUT] 3    0    [1    /1   ]  0.452                1
[INPUT] 0    0    [1    /1   ]  10.978               1
[INPUT] 0    0    [1    /1   ]  2.006                1
[INPUT] 1    0    [1    /1   ]  7.084                1
[INPUT] 1    0    [1    /1   ]  2.701                1
[INPUT] 2    0    [1    /1   ]  12.891               1
[INPUT] 2    0    [1    /1   ]  4.056                1
[INPUT] 3    0    [1    /1   ]  8.462                1
<<<<<<< HEAD
=======
>>>>>>> f0983ef5bf9ad467b05de206ad1aa900b1c074f6
=======
>>>>>>> cluster
[INPUT] Al
[INPUT] 0    0    [13   /3   ]  205500            6.78836e-05 -1.76377e-05 4.07315e-06
                                30780             0.000527149 -0.000137195 3.16566e-05
                                7006              0.00276203 -0.00071891 0.000166116
                                1985              0.0114728 -0.00301146 0.000694992
                                649.1             0.0398188 -0.0106014 0.00245511
                                235               0.11504 -0.0321345 0.00744598
                                91.62             0.260887 -0.0803156 0.0188253
                                37.67             0.396386 -0.156794 0.0372772
                                15.91             0.284597 -0.168376 0.0419496
                                5.85              0.0444583 0.126879 -0.0354375
                                2.542             -0.00489838 0.561494 -0.175132
                                1.057             0.00261253 0.436613 -0.276203
                                0.1455            0.000722068 -0.0114563 0.652809
[INPUT] 0    0    [1    /1   ]  0.2931               1
[INPUT] 0    0    [1    /1   ]  0.0565               1
[INPUT] 1    0    [7    /2   ]  444.4             0.00162786 -0.000286341
                                105.1             0.0130687 -0.00242308
                                33.47             0.0612341 -0.0108658
                                12.33             0.18787 -0.0364307
                                4.869             0.360452 -0.0641074
                                1.961             0.408454 -0.0972239
                                0.1888            0.00976514 0.503448
[INPUT] 1    0    [1    /1   ]  0.7834               1
[INPUT] 1    0    [1    /1   ]  0.05557              1
[INPUT] 2    0    [1    /1   ]  0.109                1
[INPUT] 2    0    [1    /1   ]  0.333                1
[INPUT] 3    0    [1    /1   ]  0.244                1
[INPUT] 0    0    [1    /1   ]  7.488                1
[INPUT] 0    0    [1    /1   ]  1.272                1
[INPUT] 1    0    [1    /1   ]  2.202                1
[INPUT] 1    0    [1    /1   ]  5.548                1
[INPUT] 2    0    [1    /1   ]  2.634                1
[INPUT] 2    0    [1    /1   ]  8.646                1
[INPUT] 3    0    [1    /1   ]  5.686                1
<<<<<<< HEAD
<<<<<<< HEAD
=======
<<<<<<< HEAD
=======
>>>>>>> cluster
=======
>>>>>>> b0ebe15b9cb21f72d3133d30b88ad83ae944b1df
[INPUT] P
[INPUT] 0    0    [13   /3   ]  312400            5.7696e-05 -1.56709e-05 4.30631e-06
                                46800             0.000448296 -0.000121724 3.34194e-05
                                10650             0.00234939 -0.000639672 0.000175885
                                3018              0.00978265 -0.00267426 0.00073434
                                986.8             0.0341467 -0.00949831 0.00261775
                                357.4             0.100204 -0.0289349 0.00797852
                                139.6             0.234372 -0.0745121 0.020794
                                57.63             0.382434 -0.149938 0.0424446
                                24.6              0.318088 -0.189467 0.0563436
                                10.12             0.0707788 0.036327 -0.0127358
                                4.283             -0.00181799 0.528816 -0.196495
                                1.805             0.0021618 0.519115 -0.353555
                                0.2782            0.000432297 -0.00925695 0.700912
[INPUT] 0    0    [1    /1   ]  0.6158               1
[INPUT] 0    0    [1    /1   ]  0.1055               1
[INPUT] 1    0    [7    /2   ]  504.9             0.00233728 -0.000555236
                                119.4             0.018541 -0.00445913
                                37.96             0.0849693 -0.020635
                                13.95             0.244615 -0.0617694
                                5.457             0.422766 -0.108924
                                2.177             0.368439 -0.105599
                                0.2877            -0.00379005 0.576981
[INPUT] 1    0    [1    /1   ]  0.801                1
[INPUT] 1    0    [1    /1   ]  0.09714              1
[INPUT] 2    0    [1    /1   ]  0.216                1
[INPUT] 2    0    [1    /1   ]  0.652                1
[INPUT] 3    0    [1    /1   ]  0.452                1
[INPUT] 0    0    [1    /1   ]  10.978               1
[INPUT] 0    0    [1    /1   ]  2.006                1
[INPUT] 1    0    [1    /1   ]  7.084                1
[INPUT] 1    0    [1    /1   ]  2.701                1
[INPUT] 2    0    [1    /1   ]  12.891               1
[INPUT] 2    0    [1    /1   ]  4.056                1
[INPUT] 3    0    [1    /1   ]  8.462                1
<<<<<<< HEAD
<<<<<<< HEAD
>>>>>>> f0983ef5bf9ad467b05de206ad1aa900b1c074f6
=======
[INPUT] Al
[INPUT] 0    0    [13   /3   ]  205500            6.78836e-05 -1.76377e-05 4.07315e-06
                                30780             0.000527149 -0.000137195 3.16566e-05
                                7006              0.00276203 -0.00071891 0.000166116
                                1985              0.0114728 -0.00301146 0.000694992
                                649.1             0.0398188 -0.0106014 0.00245511
                                235               0.11504 -0.0321345 0.00744598
                                91.62             0.260887 -0.0803156 0.0188253
                                37.67             0.396386 -0.156794 0.0372772
                                15.91             0.284597 -0.168376 0.0419496
                                5.85              0.0444583 0.126879 -0.0354375
                                2.542             -0.00489838 0.561494 -0.175132
                                1.057             0.00261253 0.436613 -0.276203
                                0.1455            0.000722068 -0.0114563 0.652809
[INPUT] 0    0    [1    /1   ]  0.2931               1
[INPUT] 0    0    [1    /1   ]  0.0565               1
[INPUT] 1    0    [7    /2   ]  444.4             0.00162786 -0.000286341
                                105.1             0.0130687 -0.00242308
                                33.47             0.0612341 -0.0108658
                                12.33             0.18787 -0.0364307
                                4.869             0.360452 -0.0641074
                                1.961             0.408454 -0.0972239
                                0.1888            0.00976514 0.503448
[INPUT] 1    0    [1    /1   ]  0.7834               1
[INPUT] 1    0    [1    /1   ]  0.05557              1
[INPUT] 2    0    [1    /1   ]  0.109                1
[INPUT] 2    0    [1    /1   ]  0.333                1
[INPUT] 3    0    [1    /1   ]  0.244                1
[INPUT] 0    0    [1    /1   ]  7.488                1
[INPUT] 0    0    [1    /1   ]  1.272                1
[INPUT] 1    0    [1    /1   ]  2.202                1
[INPUT] 1    0    [1    /1   ]  5.548                1
[INPUT] 2    0    [1    /1   ]  2.634                1
[INPUT] 2    0    [1    /1   ]  8.646                1
[INPUT] 3    0    [1    /1   ]  5.686                1
>>>>>>> cluster
=======
>>>>>>> f0983ef5bf9ad467b05de206ad1aa900b1c074f6
>>>>>>> b0ebe15b9cb21f72d3133d30b88ad83ae944b1df
=======
>>>>>>> cluster

Ewald components = 1.25967104982813e-135, -881.045459580493, 778.181077139905
nuclear repulsion = -102.864382440588
number of shells = 32
number of NR pGTOs = 168
number of NR cGTOs = 118
basis = ccpcvtz
ecp = {}
bas 0, expnt(s) = [2.055e+05 3.078e+04 7.006e+03 1.985e+03 6.491e+02 2.350e+02 9.162e+01
 3.767e+01 1.591e+01 5.850e+00 2.542e+00 1.057e+00 1.455e-01]
bas 1, expnt(s) = [0.2931]
bas 2, expnt(s) = [0.0565]
bas 3, expnt(s) = [4.444e+02 1.051e+02 3.347e+01 1.233e+01 4.869e+00 1.961e+00 1.888e-01]
bas 4, expnt(s) = [0.7834]
bas 5, expnt(s) = [0.05557]
bas 6, expnt(s) = [0.109]
bas 7, expnt(s) = [0.333]
bas 8, expnt(s) = [0.244]
bas 9, expnt(s) = [7.488]
bas 10, expnt(s) = [1.272]
bas 11, expnt(s) = [2.202]
bas 12, expnt(s) = [5.548]
bas 13, expnt(s) = [2.634]
bas 14, expnt(s) = [8.646]
bas 15, expnt(s) = [5.686]
bas 16, expnt(s) = [3.124e+05 4.680e+04 1.065e+04 3.018e+03 9.868e+02 3.574e+02 1.396e+02
 5.763e+01 2.460e+01 1.012e+01 4.283e+00 1.805e+00 2.782e-01]
bas 17, expnt(s) = [0.6158]
bas 18, expnt(s) = [0.1055]
bas 19, expnt(s) = [5.049e+02 1.194e+02 3.796e+01 1.395e+01 5.457e+00 2.177e+00 2.877e-01]
bas 20, expnt(s) = [0.801]
bas 21, expnt(s) = [0.09714]
bas 22, expnt(s) = [0.216]
bas 23, expnt(s) = [0.652]
bas 24, expnt(s) = [0.452]
bas 25, expnt(s) = [10.978]
bas 26, expnt(s) = [2.006]
bas 27, expnt(s) = [7.084]
bas 28, expnt(s) = [2.701]
bas 29, expnt(s) = [12.891]
bas 30, expnt(s) = [4.056]
bas 31, expnt(s) = [8.462]
<<<<<<< HEAD
<<<<<<< HEAD
<<<<<<< HEAD
<<<<<<< HEAD
CPU time:         1.14
=======
CPU time:         1.13
>>>>>>> f0983ef5bf9ad467b05de206ad1aa900b1c074f6
=======
CPU time:         1.14
>>>>>>> cluster
=======
CPU time:         1.14
=======
CPU time:         1.13
>>>>>>> f0983ef5bf9ad467b05de206ad1aa900b1c074f6
>>>>>>> b0ebe15b9cb21f72d3133d30b88ad83ae944b1df
=======
CPU time:         1.14
>>>>>>> cluster
lattice vectors  a1 [0.000000000, 5.150448183, 5.150448183]
                 a2 [5.150448183, 0.000000000, 5.150448183]
                 a3 [5.150448183, 5.150448183, 0.000000000]
dimension = 3
low_dim_ft_type = None
Cell volume = 273.253
rcut = 32.79019015615983 (nimgs = [6 6 6])
lattice sum = 1241 cells
precision = 1e-08
pseudo = None
ke_cutoff = 611678.7590065906
    = [2094 2094 2094] mesh (9181846584 PWs)


******** <class 'pyscf.pbc.scf.khf.KRHF'> ********
method = KRHF-KSCF-RHF-SCF-RHF
initial guess = minao
damping factor = 0
level_shift factor = 0
DIIS = <class 'pyscf.scf.diis.CDIIS'>
diis_start_cycle = 1
diis_space = 8
SCF conv_tol = 1e-07
SCF conv_tol_grad = None
SCF max_cycles = 50
direct_scf = True
direct_scf_tol = 1e-13
chkfile to save SCF result = data/alp_ccpcvtz_k3_Al_2p_nvir_act14.chk
<<<<<<< HEAD
<<<<<<< HEAD
<<<<<<< HEAD
<<<<<<< HEAD
max_memory 700000 MB (current use 84 MB)
=======
max_memory 700000 MB (current use 85 MB)
>>>>>>> f0983ef5bf9ad467b05de206ad1aa900b1c074f6
=======
max_memory 700000 MB (current use 84 MB)
>>>>>>> cluster
=======
max_memory 700000 MB (current use 84 MB)
=======
max_memory 700000 MB (current use 85 MB)
>>>>>>> f0983ef5bf9ad467b05de206ad1aa900b1c074f6
>>>>>>> b0ebe15b9cb21f72d3133d30b88ad83ae944b1df
=======
max_memory 700000 MB (current use 84 MB)
>>>>>>> cluster


******** PBC SCF flags ********
N kpts = 27
kpts = [[ 0.00000000e+00  0.00000000e+00  0.00000000e+00]
 [ 2.03321636e-01  2.03321636e-01 -2.03321636e-01]
 [ 4.06643272e-01  4.06643272e-01 -4.06643272e-01]
 [ 2.03321636e-01 -2.03321636e-01  2.03321636e-01]
 [ 4.06643272e-01  4.42245331e-17  2.03475955e-18]
 [ 6.09964908e-01  2.03321636e-01 -2.03321636e-01]
 [ 4.06643272e-01 -4.06643272e-01  4.06643272e-01]
 [ 6.09964908e-01 -2.03321636e-01  2.03321636e-01]
 [ 8.13286544e-01  8.84490663e-17  4.06951910e-18]
 [-2.03321636e-01  2.03321636e-01  2.03321636e-01]
 [-2.03475955e-18  4.06643272e-01  2.03475955e-18]
 [ 2.03321636e-01  6.09964908e-01 -2.03321636e-01]
 [-7.60496279e-17 -7.21709899e-18  4.06643272e-01]
 [ 2.03321636e-01  2.03321636e-01  2.03321636e-01]
 [ 4.06643272e-01  4.06643272e-01  4.06951910e-18]
 [ 2.03321636e-01 -2.03321636e-01  6.09964908e-01]
 [ 4.06643272e-01  1.64689575e-17  4.06643272e-01]
 [ 6.09964908e-01  2.03321636e-01  2.03321636e-01]
 [-4.06643272e-01  4.06643272e-01  4.06643272e-01]
 [-2.03321636e-01  6.09964908e-01  2.03321636e-01]
 [-4.06951910e-18  8.13286544e-01  4.06951910e-18]
 [-2.03321636e-01  2.03321636e-01  6.09964908e-01]
 [-8.53014864e-17  4.06643272e-01  4.06643272e-01]
 [ 2.03321636e-01  6.09964908e-01  2.03321636e-01]
 [-1.52099256e-16 -1.44341980e-17  8.13286544e-01]
 [ 2.03321636e-01  2.03321636e-01  6.09964908e-01]
 [ 4.06643272e-01  4.06643272e-01  4.06643272e-01]]
Exchange divergence treatment (exxdiv) = ewald
Monkhorst pack size [3 3 3] ew_eta 1.3749109234332217 ew_cut 5.114582727547651
Ewald components = 0, -0.775823048153945, 0.701640797011738
    madelung (= occupied orbital energy shift) = 0.14836450228441245
    Total energy shift due to Ewald probe charge = -1/2 * Nelec*madelung = -2.07710303198
<<<<<<< HEAD
<<<<<<< HEAD
<<<<<<< HEAD
<<<<<<< HEAD
=======
>>>>>>> b0ebe15b9cb21f72d3133d30b88ad83ae944b1df
DF object = <pyscf.pbc.df.df.GDF object at 0x155553f4bfd0>
=======
DF object = <pyscf.pbc.df.df.GDF object at 0x155553f43fd0>
>>>>>>> f0983ef5bf9ad467b05de206ad1aa900b1c074f6
<<<<<<< HEAD
=======
DF object = <pyscf.pbc.df.df.GDF object at 0x155553f4bfd0>
>>>>>>> cluster
=======
>>>>>>> b0ebe15b9cb21f72d3133d30b88ad83ae944b1df
=======
DF object = <pyscf.pbc.df.df.GDF object at 0x155553f4bfd0>
>>>>>>> cluster
Set gradient conv threshold to 0.000316228
Big error detected in the electron number of initial guess density matrix (Ne/cell = 27.9979)!
  This can cause huge error in Fock matrix and lead to instability in SCF for low-dimensional systems.
  DM is normalized wrt the number of electrons 28.0
<<<<<<< HEAD
<<<<<<< HEAD
<<<<<<< HEAD
<<<<<<< HEAD
=======
>>>>>>> cluster
=======
>>>>>>> b0ebe15b9cb21f72d3133d30b88ad83ae944b1df
=======
>>>>>>> cluster
    CPU time for vnuc pass1: analytic int    651.08 sec, wall time     20.94 sec
    CPU time for contracting Vnuc [0:729]     93.88 sec, wall time      3.18 sec
    CPU time for contracting Vnuc     93.88 sec, wall time      3.18 sec
    CPU time for get_nuc    745.22 sec, wall time     24.12 sec
<<<<<<< HEAD
<<<<<<< HEAD
<<<<<<< HEAD
=======
>>>>>>> b0ebe15b9cb21f72d3133d30b88ad83ae944b1df
=======
    CPU time for vnuc pass1: analytic int    646.81 sec, wall time     20.69 sec
    CPU time for contracting Vnuc [0:729]     95.85 sec, wall time      3.12 sec
    CPU time for contracting Vnuc     95.85 sec, wall time      3.12 sec
    CPU time for get_nuc    742.94 sec, wall time     23.82 sec
>>>>>>> f0983ef5bf9ad467b05de206ad1aa900b1c074f6
<<<<<<< HEAD
=======
>>>>>>> cluster
=======
>>>>>>> b0ebe15b9cb21f72d3133d30b88ad83ae944b1df
=======
>>>>>>> cluster


******** <class 'pyscf.pbc.df.df.GDF'> ********
mesh = [9, 9, 9] (729 PWs)
auxbasis = None
eta = 0.2
exp_to_discard = None
_cderi_to_save = data/alp_ccpcvtz_k3_Al_2p_nvir_act14_cderi.h5
len(kpts) = 27
    kpts = [[ 0.00000000e+00  0.00000000e+00  0.00000000e+00]
 [ 2.03321636e-01  2.03321636e-01 -2.03321636e-01]
 [ 4.06643272e-01  4.06643272e-01 -4.06643272e-01]
 [ 2.03321636e-01 -2.03321636e-01  2.03321636e-01]
 [ 4.06643272e-01  4.42245331e-17  2.03475955e-18]
 [ 6.09964908e-01  2.03321636e-01 -2.03321636e-01]
 [ 4.06643272e-01 -4.06643272e-01  4.06643272e-01]
 [ 6.09964908e-01 -2.03321636e-01  2.03321636e-01]
 [ 8.13286544e-01  8.84490663e-17  4.06951910e-18]
 [-2.03321636e-01  2.03321636e-01  2.03321636e-01]
 [-2.03475955e-18  4.06643272e-01  2.03475955e-18]
 [ 2.03321636e-01  6.09964908e-01 -2.03321636e-01]
 [-7.60496279e-17 -7.21709899e-18  4.06643272e-01]
 [ 2.03321636e-01  2.03321636e-01  2.03321636e-01]
 [ 4.06643272e-01  4.06643272e-01  4.06951910e-18]
 [ 2.03321636e-01 -2.03321636e-01  6.09964908e-01]
 [ 4.06643272e-01  1.64689575e-17  4.06643272e-01]
 [ 6.09964908e-01  2.03321636e-01  2.03321636e-01]
 [-4.06643272e-01  4.06643272e-01  4.06643272e-01]
 [-2.03321636e-01  6.09964908e-01  2.03321636e-01]
 [-4.06951910e-18  8.13286544e-01  4.06951910e-18]
 [-2.03321636e-01  2.03321636e-01  6.09964908e-01]
 [-8.53014864e-17  4.06643272e-01  4.06643272e-01]
 [ 2.03321636e-01  6.09964908e-01  2.03321636e-01]
 [-1.52099256e-16 -1.44341980e-17  8.13286544e-01]
 [ 2.03321636e-01  2.03321636e-01  6.09964908e-01]
 [ 4.06643272e-01  4.06643272e-01  4.06643272e-01]]
<<<<<<< HEAD
<<<<<<< HEAD
<<<<<<< HEAD
<<<<<<< HEAD
=======
>>>>>>> b0ebe15b9cb21f72d3133d30b88ad83ae944b1df
Even tempered Gaussians are generated as DF auxbasis for  P Al
  ETB auxbasis for P  [[0, [13828.096, 1]], [0, [6914.048, 1]], [0, [3457.024, 1]], [0, [1728.512, 1]], [0, [864.256, 1]], [0, [432.128, 1]], [0, [216.064, 1]], [0, [108.032, 1]], [0, [54.016, 1]], [0, [27.008, 1]], [0, [13.504, 1]], [0, [6.752, 1]], [0, [3.376, 1]], [0, [1.688, 1]], [0, [0.844, 1]], [0, [0.422, 1]], [0, [0.211, 1]], [1, [3317.2271738071363, 1]], [1, [1658.6135869035681, 1]], [1, [829.3067934517841, 1]], [1, [414.65339672589204, 1]], [1, [207.32669836294602, 1]], [1, [103.66334918147301, 1]], [1, [51.831674590736505, 1]], [1, [25.915837295368252, 1]], [1, [12.957918647684126, 1]], [1, [6.478959323842063, 1]], [1, [3.2394796619210315, 1]], [1, [1.6197398309605158, 1]], [1, [0.8098699154802579, 1]], [1, [0.40493495774012894, 1]], [1, [0.20246747887006447, 1]], [2, [795.77088, 1]], [2, [397.88544, 1]], [2, [198.94272, 1]], [2, [99.47136, 1]], [2, [49.73568, 1]], [2, [24.86784, 1]], [2, [12.43392, 1]], [2, [6.21696, 1]], [2, [3.10848, 1]], [2, [1.55424, 1]], [2, [0.77712, 1]], [2, [0.38856, 1]], [2, [0.19428, 1]], [3, [148.32893611915378, 1]], [3, [74.16446805957689, 1]], [3, [37.082234029788445, 1]], [3, [18.541117014894223, 1]], [3, [9.270558507447111, 1]], [3, [4.635279253723556, 1]], [3, [2.317639626861778, 1]], [3, [1.158819813430889, 1]], [3, [0.5794099067154445, 1]], [3, [0.28970495335772223, 1]], [4, [13.824, 1]], [4, [6.912, 1]], [4, [3.456, 1]], [4, [1.728, 1]], [4, [0.864, 1]], [4, [0.432, 1]]]
  ETB auxbasis for Al  [[0, [7405.568, 1]], [0, [3702.784, 1]], [0, [1851.392, 1]], [0, [925.696, 1]], [0, [462.848, 1]], [0, [231.424, 1]], [0, [115.712, 1]], [0, [57.856, 1]], [0, [28.928, 1]], [0, [14.464, 1]], [0, [7.232, 1]], [0, [3.616, 1]], [0, [1.808, 1]], [0, [0.904, 1]], [0, [0.452, 1]], [0, [0.226, 1]], [0, [0.113, 1]], [1, [1836.0916571679966, 1]], [1, [918.0458285839983, 1]], [1, [459.02291429199914, 1]], [1, [229.51145714599957, 1]], [1, [114.75572857299979, 1]], [1, [57.37786428649989, 1]], [1, [28.688932143249946, 1]], [1, [14.344466071624973, 1]], [1, [7.172233035812487, 1]], [1, [3.5861165179062433, 1]], [1, [1.7930582589531217, 1]], [1, [0.8965291294765608, 1]], [1, [0.4482645647382804, 1]], [1, [0.2241322823691402, 1]], [1, [0.1120661411845701, 1]], [2, [455.22944, 1]], [2, [227.61472, 1]], [2, [113.80736, 1]], [2, [56.90368, 1]], [2, [28.45184, 1]], [2, [14.22592, 1]], [2, [7.11296, 1]], [2, [3.55648, 1]], [2, [1.77824, 1]], [2, [0.88912, 1]], [2, [0.44456, 1]], [2, [0.22228, 1]], [2, [0.11114, 1]], [3, [79.69542739003286, 1]], [3, [39.84771369501643, 1]], [3, [19.923856847508215, 1]], [3, [9.961928423754108, 1]], [3, [4.980964211877054, 1]], [3, [2.490482105938527, 1]], [3, [1.2452410529692635, 1]], [3, [0.6226205264846317, 1]], [3, [0.31131026324231587, 1]], [3, [0.15565513162115793, 1]], [4, [13.952, 1]], [4, [6.976, 1]], [4, [3.488, 1]], [4, [1.744, 1]], [4, [0.872, 1]], [4, [0.436, 1]], [4, [0.218, 1]]]
=======
Even tempered Gaussians are generated as DF auxbasis for  Al P
  ETB auxbasis for Al  [[0, [7405.568, 1]], [0, [3702.784, 1]], [0, [1851.392, 1]], [0, [925.696, 1]], [0, [462.848, 1]], [0, [231.424, 1]], [0, [115.712, 1]], [0, [57.856, 1]], [0, [28.928, 1]], [0, [14.464, 1]], [0, [7.232, 1]], [0, [3.616, 1]], [0, [1.808, 1]], [0, [0.904, 1]], [0, [0.452, 1]], [0, [0.226, 1]], [0, [0.113, 1]], [1, [1836.0916571679966, 1]], [1, [918.0458285839983, 1]], [1, [459.02291429199914, 1]], [1, [229.51145714599957, 1]], [1, [114.75572857299979, 1]], [1, [57.37786428649989, 1]], [1, [28.688932143249946, 1]], [1, [14.344466071624973, 1]], [1, [7.172233035812487, 1]], [1, [3.5861165179062433, 1]], [1, [1.7930582589531217, 1]], [1, [0.8965291294765608, 1]], [1, [0.4482645647382804, 1]], [1, [0.2241322823691402, 1]], [1, [0.1120661411845701, 1]], [2, [455.22944, 1]], [2, [227.61472, 1]], [2, [113.80736, 1]], [2, [56.90368, 1]], [2, [28.45184, 1]], [2, [14.22592, 1]], [2, [7.11296, 1]], [2, [3.55648, 1]], [2, [1.77824, 1]], [2, [0.88912, 1]], [2, [0.44456, 1]], [2, [0.22228, 1]], [2, [0.11114, 1]], [3, [79.69542739003286, 1]], [3, [39.84771369501643, 1]], [3, [19.923856847508215, 1]], [3, [9.961928423754108, 1]], [3, [4.980964211877054, 1]], [3, [2.490482105938527, 1]], [3, [1.2452410529692635, 1]], [3, [0.6226205264846317, 1]], [3, [0.31131026324231587, 1]], [3, [0.15565513162115793, 1]], [4, [13.952, 1]], [4, [6.976, 1]], [4, [3.488, 1]], [4, [1.744, 1]], [4, [0.872, 1]], [4, [0.436, 1]], [4, [0.218, 1]]]
  ETB auxbasis for P  [[0, [13828.096, 1]], [0, [6914.048, 1]], [0, [3457.024, 1]], [0, [1728.512, 1]], [0, [864.256, 1]], [0, [432.128, 1]], [0, [216.064, 1]], [0, [108.032, 1]], [0, [54.016, 1]], [0, [27.008, 1]], [0, [13.504, 1]], [0, [6.752, 1]], [0, [3.376, 1]], [0, [1.688, 1]], [0, [0.844, 1]], [0, [0.422, 1]], [0, [0.211, 1]], [1, [3317.2271738071363, 1]], [1, [1658.6135869035681, 1]], [1, [829.3067934517841, 1]], [1, [414.65339672589204, 1]], [1, [207.32669836294602, 1]], [1, [103.66334918147301, 1]], [1, [51.831674590736505, 1]], [1, [25.915837295368252, 1]], [1, [12.957918647684126, 1]], [1, [6.478959323842063, 1]], [1, [3.2394796619210315, 1]], [1, [1.6197398309605158, 1]], [1, [0.8098699154802579, 1]], [1, [0.40493495774012894, 1]], [1, [0.20246747887006447, 1]], [2, [795.77088, 1]], [2, [397.88544, 1]], [2, [198.94272, 1]], [2, [99.47136, 1]], [2, [49.73568, 1]], [2, [24.86784, 1]], [2, [12.43392, 1]], [2, [6.21696, 1]], [2, [3.10848, 1]], [2, [1.55424, 1]], [2, [0.77712, 1]], [2, [0.38856, 1]], [2, [0.19428, 1]], [3, [148.32893611915378, 1]], [3, [74.16446805957689, 1]], [3, [37.082234029788445, 1]], [3, [18.541117014894223, 1]], [3, [9.270558507447111, 1]], [3, [4.635279253723556, 1]], [3, [2.317639626861778, 1]], [3, [1.158819813430889, 1]], [3, [0.5794099067154445, 1]], [3, [0.28970495335772223, 1]], [4, [13.824, 1]], [4, [6.912, 1]], [4, [3.456, 1]], [4, [1.728, 1]], [4, [0.864, 1]], [4, [0.432, 1]]]
>>>>>>> f0983ef5bf9ad467b05de206ad1aa900b1c074f6
<<<<<<< HEAD
=======
Even tempered Gaussians are generated as DF auxbasis for  P Al
  ETB auxbasis for P  [[0, [13828.096, 1]], [0, [6914.048, 1]], [0, [3457.024, 1]], [0, [1728.512, 1]], [0, [864.256, 1]], [0, [432.128, 1]], [0, [216.064, 1]], [0, [108.032, 1]], [0, [54.016, 1]], [0, [27.008, 1]], [0, [13.504, 1]], [0, [6.752, 1]], [0, [3.376, 1]], [0, [1.688, 1]], [0, [0.844, 1]], [0, [0.422, 1]], [0, [0.211, 1]], [1, [3317.2271738071363, 1]], [1, [1658.6135869035681, 1]], [1, [829.3067934517841, 1]], [1, [414.65339672589204, 1]], [1, [207.32669836294602, 1]], [1, [103.66334918147301, 1]], [1, [51.831674590736505, 1]], [1, [25.915837295368252, 1]], [1, [12.957918647684126, 1]], [1, [6.478959323842063, 1]], [1, [3.2394796619210315, 1]], [1, [1.6197398309605158, 1]], [1, [0.8098699154802579, 1]], [1, [0.40493495774012894, 1]], [1, [0.20246747887006447, 1]], [2, [795.77088, 1]], [2, [397.88544, 1]], [2, [198.94272, 1]], [2, [99.47136, 1]], [2, [49.73568, 1]], [2, [24.86784, 1]], [2, [12.43392, 1]], [2, [6.21696, 1]], [2, [3.10848, 1]], [2, [1.55424, 1]], [2, [0.77712, 1]], [2, [0.38856, 1]], [2, [0.19428, 1]], [3, [148.32893611915378, 1]], [3, [74.16446805957689, 1]], [3, [37.082234029788445, 1]], [3, [18.541117014894223, 1]], [3, [9.270558507447111, 1]], [3, [4.635279253723556, 1]], [3, [2.317639626861778, 1]], [3, [1.158819813430889, 1]], [3, [0.5794099067154445, 1]], [3, [0.28970495335772223, 1]], [4, [13.824, 1]], [4, [6.912, 1]], [4, [3.456, 1]], [4, [1.728, 1]], [4, [0.864, 1]], [4, [0.432, 1]]]
  ETB auxbasis for Al  [[0, [7405.568, 1]], [0, [3702.784, 1]], [0, [1851.392, 1]], [0, [925.696, 1]], [0, [462.848, 1]], [0, [231.424, 1]], [0, [115.712, 1]], [0, [57.856, 1]], [0, [28.928, 1]], [0, [14.464, 1]], [0, [7.232, 1]], [0, [3.616, 1]], [0, [1.808, 1]], [0, [0.904, 1]], [0, [0.452, 1]], [0, [0.226, 1]], [0, [0.113, 1]], [1, [1836.0916571679966, 1]], [1, [918.0458285839983, 1]], [1, [459.02291429199914, 1]], [1, [229.51145714599957, 1]], [1, [114.75572857299979, 1]], [1, [57.37786428649989, 1]], [1, [28.688932143249946, 1]], [1, [14.344466071624973, 1]], [1, [7.172233035812487, 1]], [1, [3.5861165179062433, 1]], [1, [1.7930582589531217, 1]], [1, [0.8965291294765608, 1]], [1, [0.4482645647382804, 1]], [1, [0.2241322823691402, 1]], [1, [0.1120661411845701, 1]], [2, [455.22944, 1]], [2, [227.61472, 1]], [2, [113.80736, 1]], [2, [56.90368, 1]], [2, [28.45184, 1]], [2, [14.22592, 1]], [2, [7.11296, 1]], [2, [3.55648, 1]], [2, [1.77824, 1]], [2, [0.88912, 1]], [2, [0.44456, 1]], [2, [0.22228, 1]], [2, [0.11114, 1]], [3, [79.69542739003286, 1]], [3, [39.84771369501643, 1]], [3, [19.923856847508215, 1]], [3, [9.961928423754108, 1]], [3, [4.980964211877054, 1]], [3, [2.490482105938527, 1]], [3, [1.2452410529692635, 1]], [3, [0.6226205264846317, 1]], [3, [0.31131026324231587, 1]], [3, [0.15565513162115793, 1]], [4, [13.952, 1]], [4, [6.976, 1]], [4, [3.488, 1]], [4, [1.744, 1]], [4, [0.872, 1]], [4, [0.436, 1]], [4, [0.218, 1]]]
>>>>>>> cluster
=======
>>>>>>> b0ebe15b9cb21f72d3133d30b88ad83ae944b1df
=======
Even tempered Gaussians are generated as DF auxbasis for  P Al
  ETB auxbasis for P  [[0, [13828.096, 1]], [0, [6914.048, 1]], [0, [3457.024, 1]], [0, [1728.512, 1]], [0, [864.256, 1]], [0, [432.128, 1]], [0, [216.064, 1]], [0, [108.032, 1]], [0, [54.016, 1]], [0, [27.008, 1]], [0, [13.504, 1]], [0, [6.752, 1]], [0, [3.376, 1]], [0, [1.688, 1]], [0, [0.844, 1]], [0, [0.422, 1]], [0, [0.211, 1]], [1, [3317.2271738071363, 1]], [1, [1658.6135869035681, 1]], [1, [829.3067934517841, 1]], [1, [414.65339672589204, 1]], [1, [207.32669836294602, 1]], [1, [103.66334918147301, 1]], [1, [51.831674590736505, 1]], [1, [25.915837295368252, 1]], [1, [12.957918647684126, 1]], [1, [6.478959323842063, 1]], [1, [3.2394796619210315, 1]], [1, [1.6197398309605158, 1]], [1, [0.8098699154802579, 1]], [1, [0.40493495774012894, 1]], [1, [0.20246747887006447, 1]], [2, [795.77088, 1]], [2, [397.88544, 1]], [2, [198.94272, 1]], [2, [99.47136, 1]], [2, [49.73568, 1]], [2, [24.86784, 1]], [2, [12.43392, 1]], [2, [6.21696, 1]], [2, [3.10848, 1]], [2, [1.55424, 1]], [2, [0.77712, 1]], [2, [0.38856, 1]], [2, [0.19428, 1]], [3, [148.32893611915378, 1]], [3, [74.16446805957689, 1]], [3, [37.082234029788445, 1]], [3, [18.541117014894223, 1]], [3, [9.270558507447111, 1]], [3, [4.635279253723556, 1]], [3, [2.317639626861778, 1]], [3, [1.158819813430889, 1]], [3, [0.5794099067154445, 1]], [3, [0.28970495335772223, 1]], [4, [13.824, 1]], [4, [6.912, 1]], [4, [3.456, 1]], [4, [1.728, 1]], [4, [0.864, 1]], [4, [0.432, 1]]]
  ETB auxbasis for Al  [[0, [7405.568, 1]], [0, [3702.784, 1]], [0, [1851.392, 1]], [0, [925.696, 1]], [0, [462.848, 1]], [0, [231.424, 1]], [0, [115.712, 1]], [0, [57.856, 1]], [0, [28.928, 1]], [0, [14.464, 1]], [0, [7.232, 1]], [0, [3.616, 1]], [0, [1.808, 1]], [0, [0.904, 1]], [0, [0.452, 1]], [0, [0.226, 1]], [0, [0.113, 1]], [1, [1836.0916571679966, 1]], [1, [918.0458285839983, 1]], [1, [459.02291429199914, 1]], [1, [229.51145714599957, 1]], [1, [114.75572857299979, 1]], [1, [57.37786428649989, 1]], [1, [28.688932143249946, 1]], [1, [14.344466071624973, 1]], [1, [7.172233035812487, 1]], [1, [3.5861165179062433, 1]], [1, [1.7930582589531217, 1]], [1, [0.8965291294765608, 1]], [1, [0.4482645647382804, 1]], [1, [0.2241322823691402, 1]], [1, [0.1120661411845701, 1]], [2, [455.22944, 1]], [2, [227.61472, 1]], [2, [113.80736, 1]], [2, [56.90368, 1]], [2, [28.45184, 1]], [2, [14.22592, 1]], [2, [7.11296, 1]], [2, [3.55648, 1]], [2, [1.77824, 1]], [2, [0.88912, 1]], [2, [0.44456, 1]], [2, [0.22228, 1]], [2, [0.11114, 1]], [3, [79.69542739003286, 1]], [3, [39.84771369501643, 1]], [3, [19.923856847508215, 1]], [3, [9.961928423754108, 1]], [3, [4.980964211877054, 1]], [3, [2.490482105938527, 1]], [3, [1.2452410529692635, 1]], [3, [0.6226205264846317, 1]], [3, [0.31131026324231587, 1]], [3, [0.15565513162115793, 1]], [4, [13.952, 1]], [4, [6.976, 1]], [4, [3.488, 1]], [4, [1.744, 1]], [4, [0.872, 1]], [4, [0.436, 1]], [4, [0.218, 1]]]
>>>>>>> cluster
num shells = 123, num cGTOs = 511
Drop 0 primitive fitting functions
make aux basis, num shells = 123, num cGTOs = 511
auxcell.rcut 17.24916021658648
make compensating basis, num shells = 10, num cGTOs = 50
chgcell.rcut 11.482117703874595
<<<<<<< HEAD
<<<<<<< HEAD
<<<<<<< HEAD
<<<<<<< HEAD
    CPU time for 3c2e  49838.46 sec, wall time   1678.72 sec
=======
    CPU time for 3c2e  49545.58 sec, wall time   1708.45 sec
>>>>>>> f0983ef5bf9ad467b05de206ad1aa900b1c074f6
=======
    CPU time for 3c2e  49838.46 sec, wall time   1678.72 sec
>>>>>>> cluster
=======
    CPU time for 3c2e  49838.46 sec, wall time   1678.72 sec
=======
    CPU time for 3c2e  49545.58 sec, wall time   1708.45 sec
>>>>>>> f0983ef5bf9ad467b05de206ad1aa900b1c074f6
>>>>>>> b0ebe15b9cb21f72d3133d30b88ad83ae944b1df
=======
    CPU time for 3c2e  49838.46 sec, wall time   1678.72 sec
>>>>>>> cluster
Num uniq kpts 63
uniq_kpts [[ 0.00000000e+00  0.00000000e+00  0.00000000e+00]
 [-2.03321636e-01 -2.03321636e-01  2.03321636e-01]
 [-4.06643272e-01 -4.06643272e-01  4.06643272e-01]
 [-2.03321636e-01  2.03321636e-01 -2.03321636e-01]
 [ 8.32667268e-17  4.06643272e-01 -4.06643272e-01]
 [ 2.03321636e-01  6.09964908e-01 -6.09964908e-01]
 [-4.06643272e-01 -4.42245331e-17 -2.03475955e-18]
 [-6.09964908e-01 -2.03321636e-01  2.03321636e-01]
 [-4.06643272e-01  4.06643272e-01 -4.06643272e-01]
 [-2.03321636e-01  6.09964908e-01 -6.09964908e-01]
 [ 1.66533454e-16  8.13286544e-01 -8.13286544e-01]
 [-6.09964908e-01  2.03321636e-01 -2.03321636e-01]
 [-8.13286544e-01 -8.84490663e-17 -4.06951910e-18]
 [ 2.03321636e-01 -2.03321636e-01 -2.03321636e-01]
 [ 4.06643272e-01  5.55111512e-17 -4.06643272e-01]
 [ 6.09964908e-01  2.03321636e-01 -6.09964908e-01]
 [ 4.06643272e-01 -4.06643272e-01  0.00000000e+00]
 [ 6.09964908e-01 -2.03321636e-01 -2.03321636e-01]
 [ 8.13286544e-01  8.32667268e-17 -4.06643272e-01]
 [ 6.09964908e-01 -6.09964908e-01  2.03321636e-01]
 [ 8.13286544e-01 -4.06643272e-01  0.00000000e+00]
 [ 1.01660818e+00 -2.03321636e-01 -2.03321636e-01]
 [ 2.03475955e-18 -4.06643272e-01 -2.03475955e-18]
 [ 2.03321636e-01 -6.09964908e-01  2.03321636e-01]
 [ 4.06643272e-01 -8.13286544e-01  4.06643272e-01]
 [-2.03321636e-01 -6.09964908e-01  2.03321636e-01]
 [-8.32667268e-17 -8.13286544e-01  4.06643272e-01]
 [ 2.03321636e-01 -1.01660818e+00  6.09964908e-01]
 [ 7.60496279e-17  7.21709899e-18 -4.06643272e-01]
 [ 2.03321636e-01  2.03321636e-01 -6.09964908e-01]
 [ 4.06643272e-01  4.06643272e-01 -8.13286544e-01]
 [-2.03321636e-01 -2.03321636e-01 -2.03321636e-01]
 [-4.06643272e-01 -4.06643272e-01 -4.06951910e-18]
 [-2.03321636e-01  2.03321636e-01 -6.09964908e-01]
 [ 1.38777878e-16  4.06643272e-01 -8.13286544e-01]
 [ 2.03321636e-01  6.09964908e-01 -1.01660818e+00]
 [-4.06643272e-01 -1.64689575e-17 -4.06643272e-01]
 [-6.09964908e-01 -2.03321636e-01 -2.03321636e-01]
 [ 4.06643272e-01 -4.06643272e-01 -4.06643272e-01]
 [ 6.09964908e-01 -2.03321636e-01 -6.09964908e-01]
 [ 8.13286544e-01  1.11022302e-16 -8.13286544e-01]
 [ 6.09964908e-01 -6.09964908e-01 -2.03321636e-01]
 [ 8.13286544e-01 -4.06643272e-01 -4.06643272e-01]
 [ 1.01660818e+00 -2.03321636e-01 -6.09964908e-01]
 [ 8.13286544e-01 -8.13286544e-01  0.00000000e+00]
 [ 1.01660818e+00 -6.09964908e-01 -2.03321636e-01]
 [ 1.21992982e+00 -4.06643272e-01 -4.06643272e-01]
 [ 2.03321636e-01 -6.09964908e-01 -2.03321636e-01]
 [ 4.06643272e-01 -8.13286544e-01  0.00000000e+00]
 [ 6.09964908e-01 -1.01660818e+00  2.03321636e-01]
 [ 4.06951910e-18 -8.13286544e-01 -4.06951910e-18]
 [ 2.03321636e-01 -1.01660818e+00  2.03321636e-01]
 [ 4.06643272e-01 -1.21992982e+00  4.06643272e-01]
 [ 2.03321636e-01 -2.03321636e-01 -6.09964908e-01]
 [ 4.06643272e-01  5.55111512e-17 -8.13286544e-01]
 [ 6.09964908e-01  2.03321636e-01 -1.01660818e+00]
 [ 8.53014864e-17 -4.06643272e-01 -4.06643272e-01]
 [-2.03321636e-01 -6.09964908e-01 -2.03321636e-01]
 [ 1.52099256e-16  1.44341980e-17 -8.13286544e-01]
 [ 2.03321636e-01  2.03321636e-01 -1.01660818e+00]
 [ 4.06643272e-01  4.06643272e-01 -1.21992982e+00]
 [-2.03321636e-01 -2.03321636e-01 -6.09964908e-01]
 [-4.06643272e-01 -4.06643272e-01 -4.06643272e-01]]
<<<<<<< HEAD
<<<<<<< HEAD
<<<<<<< HEAD
<<<<<<< HEAD
=======
>>>>>>> b0ebe15b9cb21f72d3133d30b88ad83ae944b1df
max_memory 698974.988288 (MB)  blocksize 31148618
=======
max_memory 698956.945408 (MB)  blocksize 31147813
>>>>>>> f0983ef5bf9ad467b05de206ad1aa900b1c074f6
<<<<<<< HEAD
=======
max_memory 698974.988288 (MB)  blocksize 31148618
>>>>>>> cluster
=======
>>>>>>> b0ebe15b9cb21f72d3133d30b88ad83ae944b1df
=======
max_memory 698974.988288 (MB)  blocksize 31148618
>>>>>>> cluster
Cholesky decomposition for j2c at kpt 0
Symmetry pattern (k - [0. 0. 0.])*a= 2n pi
    make_kpt for uniq_kptji_ids [0]
kpt = [0. 0. 0.]
adapted_ji_idx = [  0   2   5   9  14  20  27  35  44  54  65  77  90 104 119 135 152 170
 189 209 230 252 275 299 324 350 377]
<<<<<<< HEAD
<<<<<<< HEAD
<<<<<<< HEAD
<<<<<<< HEAD
memory = 740.564992
=======
memory = 764.338176
>>>>>>> f0983ef5bf9ad467b05de206ad1aa900b1c074f6
=======
memory = 740.564992
>>>>>>> cluster
=======
memory = 740.564992
=======
memory = 764.338176
>>>>>>> f0983ef5bf9ad467b05de206ad1aa900b1c074f6
>>>>>>> b0ebe15b9cb21f72d3133d30b88ad83ae944b1df
=======
memory = 740.564992
>>>>>>> cluster
int3c2e [1/1], AO [0:32], ncol = 7021
Symmetry pattern (k + [0. 0. 0.])*a= 2n pi
    make_kpt for [0]
Cholesky decomposition for j2c at kpt 1
Symmetry pattern (k - [-0.20332164 -0.20332164  0.20332164])*a= 2n pi
    make_kpt for uniq_kptji_ids [1]
kpt = [-0.20332164 -0.20332164  0.20332164]
adapted_ji_idx = [  1   4  13  19  34  43  64  76 103 118 151 169 208 229 274 298 349 376]
<<<<<<< HEAD
<<<<<<< HEAD
<<<<<<< HEAD
<<<<<<< HEAD
memory = 2421.772288
=======
memory = 2439.000064
>>>>>>> f0983ef5bf9ad467b05de206ad1aa900b1c074f6
=======
memory = 2421.772288
>>>>>>> cluster
=======
memory = 2421.772288
=======
memory = 2439.000064
>>>>>>> f0983ef5bf9ad467b05de206ad1aa900b1c074f6
>>>>>>> b0ebe15b9cb21f72d3133d30b88ad83ae944b1df
=======
memory = 2421.772288
>>>>>>> cluster
int3c2e [1/1], AO [0:32], ncol = 13924
Symmetry pattern (k + [-0.20332164 -0.20332164  0.20332164])*a= 2n pi
    make_kpt for [2]
kpt = [-0.40664327 -0.40664327  0.40664327]
adapted_ji_idx = [  3  18  42  75 117 168 228 297 375]
<<<<<<< HEAD
<<<<<<< HEAD
<<<<<<< HEAD
<<<<<<< HEAD
=======
>>>>>>> b0ebe15b9cb21f72d3133d30b88ad83ae944b1df
memory = 2517.630976
=======
memory = 2524.803072
>>>>>>> f0983ef5bf9ad467b05de206ad1aa900b1c074f6
<<<<<<< HEAD
=======
memory = 2517.630976
>>>>>>> cluster
=======
>>>>>>> b0ebe15b9cb21f72d3133d30b88ad83ae944b1df
=======
memory = 2517.630976
>>>>>>> cluster
int3c2e [1/1], AO [0:32], ncol = 13924
Cholesky decomposition for j2c at kpt 3
Symmetry pattern (k - [-0.20332164  0.20332164 -0.20332164])*a= 2n pi
    make_kpt for uniq_kptji_ids [3]
kpt = [-0.20332164  0.20332164 -0.20332164]
adapted_ji_idx = [  6  11  17  24  32  41  87 101 116 132 149 167 249 272 296 321 347 374]
<<<<<<< HEAD
<<<<<<< HEAD
<<<<<<< HEAD
<<<<<<< HEAD
memory = 2532.302848
=======
memory = 2550.030336
>>>>>>> f0983ef5bf9ad467b05de206ad1aa900b1c074f6
=======
memory = 2532.302848
>>>>>>> cluster
=======
memory = 2532.302848
=======
memory = 2550.030336
>>>>>>> f0983ef5bf9ad467b05de206ad1aa900b1c074f6
>>>>>>> b0ebe15b9cb21f72d3133d30b88ad83ae944b1df
=======
memory = 2532.302848
>>>>>>> cluster
int3c2e [1/1], AO [0:32], ncol = 13924
Symmetry pattern (k + [-0.20332164  0.20332164 -0.20332164])*a= 2n pi
    make_kpt for [8]
kpt = [-0.40664327  0.40664327 -0.40664327]
adapted_ji_idx = [ 21  29  38 129 146 164 318 344 371]
<<<<<<< HEAD
<<<<<<< HEAD
<<<<<<< HEAD
<<<<<<< HEAD
memory = 1847.361536
=======
memory = 1866.129408
>>>>>>> f0983ef5bf9ad467b05de206ad1aa900b1c074f6
=======
memory = 1847.361536
>>>>>>> cluster
=======
memory = 1847.361536
=======
memory = 1866.129408
>>>>>>> f0983ef5bf9ad467b05de206ad1aa900b1c074f6
>>>>>>> b0ebe15b9cb21f72d3133d30b88ad83ae944b1df
=======
memory = 1847.361536
>>>>>>> cluster
int3c2e [1/1], AO [0:32], ncol = 13924
Cholesky decomposition for j2c at kpt 4
Symmetry pattern (k - [ 8.32667268e-17  4.06643272e-01 -4.06643272e-01])*a= 2n pi
    make_kpt for uniq_kptji_ids [4 7]
kpt = [ 8.32667268e-17  4.06643272e-01 -4.06643272e-01]
adapted_ji_idx = [  7  12  25  33  88 102 133 150 250 273 322 348]
<<<<<<< HEAD
<<<<<<< HEAD
<<<<<<< HEAD
<<<<<<< HEAD
=======
>>>>>>> cluster
memory = 1849.15968
int3c2e [1/1], AO [0:32], ncol = 13924
kpt = [-0.60996491 -0.20332164  0.20332164]
adapted_ji_idx = [ 15  39 114 165 294 372]
memory = 1848.782848
<<<<<<< HEAD
=======
memory = 1866.252288
int3c2e [1/1], AO [0:32], ncol = 13924
kpt = [-0.60996491 -0.20332164  0.20332164]
adapted_ji_idx = [ 15  39 114 165 294 372]
memory = 1865.940992
>>>>>>> f0983ef5bf9ad467b05de206ad1aa900b1c074f6
=======
=======
>>>>>>> b0ebe15b9cb21f72d3133d30b88ad83ae944b1df
memory = 1849.15968
int3c2e [1/1], AO [0:32], ncol = 13924
kpt = [-0.60996491 -0.20332164  0.20332164]
adapted_ji_idx = [ 15  39 114 165 294 372]
memory = 1848.782848
<<<<<<< HEAD
>>>>>>> cluster
=======
=======
memory = 1866.252288
int3c2e [1/1], AO [0:32], ncol = 13924
kpt = [-0.60996491 -0.20332164  0.20332164]
adapted_ji_idx = [ 15  39 114 165 294 372]
memory = 1865.940992
>>>>>>> f0983ef5bf9ad467b05de206ad1aa900b1c074f6
>>>>>>> b0ebe15b9cb21f72d3133d30b88ad83ae944b1df
=======
>>>>>>> cluster
int3c2e [1/1], AO [0:32], ncol = 13924
Symmetry pattern (k + [ 8.32667268e-17  4.06643272e-01 -4.06643272e-01])*a= 2n pi
    make_kpt for [10 11]
kpt = [ 1.66533454e-16  8.13286544e-01 -8.13286544e-01]
adapted_ji_idx = [ 23 131 320]
<<<<<<< HEAD
<<<<<<< HEAD
<<<<<<< HEAD
<<<<<<< HEAD
=======
>>>>>>> cluster
memory = 1849.30304
int3c2e [1/1], AO [0:32], ncol = 13924
kpt = [-0.60996491  0.20332164 -0.20332164]
adapted_ji_idx = [ 28  37 145 163 343 370]
memory = 1848.266752
<<<<<<< HEAD
=======
memory = 1864.650752
int3c2e [1/1], AO [0:32], ncol = 13924
kpt = [-0.60996491  0.20332164 -0.20332164]
adapted_ji_idx = [ 28  37 145 163 343 370]
memory = 1864.630272
>>>>>>> f0983ef5bf9ad467b05de206ad1aa900b1c074f6
=======
=======
>>>>>>> b0ebe15b9cb21f72d3133d30b88ad83ae944b1df
memory = 1849.30304
int3c2e [1/1], AO [0:32], ncol = 13924
kpt = [-0.60996491  0.20332164 -0.20332164]
adapted_ji_idx = [ 28  37 145 163 343 370]
memory = 1848.266752
<<<<<<< HEAD
>>>>>>> cluster
=======
=======
memory = 1864.650752
int3c2e [1/1], AO [0:32], ncol = 13924
kpt = [-0.60996491  0.20332164 -0.20332164]
adapted_ji_idx = [ 28  37 145 163 343 370]
memory = 1864.630272
>>>>>>> f0983ef5bf9ad467b05de206ad1aa900b1c074f6
>>>>>>> b0ebe15b9cb21f72d3133d30b88ad83ae944b1df
=======
>>>>>>> cluster
int3c2e [1/1], AO [0:32], ncol = 13924
Cholesky decomposition for j2c at kpt 5
Symmetry pattern (k - [ 0.20332164  0.60996491 -0.60996491])*a= 2n pi
    make_kpt for uniq_kptji_ids [5 6]
kpt = [ 0.20332164  0.60996491 -0.60996491]
adapted_ji_idx = [  8  26  89 134 251 323]
<<<<<<< HEAD
<<<<<<< HEAD
<<<<<<< HEAD
<<<<<<< HEAD
=======
>>>>>>> b0ebe15b9cb21f72d3133d30b88ad83ae944b1df
=======
>>>>>>> cluster
memory = 1849.073664
int3c2e [1/1], AO [0:32], ncol = 13924
kpt = [-4.06643272e-01 -4.42245331e-17 -2.03475955e-18]
adapted_ji_idx = [ 10  16  31  40 100 115 148 166 271 295 346 373]
memory = 1848.991744
<<<<<<< HEAD
=======
memory = 1865.46176
int3c2e [1/1], AO [0:32], ncol = 13924
kpt = [-4.06643272e-01 -4.42245331e-17 -2.03475955e-18]
adapted_ji_idx = [ 10  16  31  40 100 115 148 166 271 295 346 373]
memory = 1864.630272
>>>>>>> f0983ef5bf9ad467b05de206ad1aa900b1c074f6
<<<<<<< HEAD
=======
memory = 1849.073664
int3c2e [1/1], AO [0:32], ncol = 13924
kpt = [-4.06643272e-01 -4.42245331e-17 -2.03475955e-18]
adapted_ji_idx = [ 10  16  31  40 100 115 148 166 271 295 346 373]
memory = 1848.991744
>>>>>>> cluster
=======
>>>>>>> b0ebe15b9cb21f72d3133d30b88ad83ae944b1df
=======
>>>>>>> cluster
int3c2e [1/1], AO [0:32], ncol = 13924
Symmetry pattern (k + [ 0.20332164  0.60996491 -0.60996491])*a= 2n pi
    make_kpt for [ 9 12]
kpt = [-0.20332164  0.60996491 -0.60996491]
adapted_ji_idx = [ 22  30 130 147 319 345]
<<<<<<< HEAD
<<<<<<< HEAD
<<<<<<< HEAD
<<<<<<< HEAD
=======
>>>>>>> b0ebe15b9cb21f72d3133d30b88ad83ae944b1df
=======
>>>>>>> cluster
memory = 1848.352768
int3c2e [1/1], AO [0:32], ncol = 13924
kpt = [-8.13286544e-01 -8.84490663e-17 -4.06951910e-18]
adapted_ji_idx = [ 36 162 369]
memory = 1848.832
<<<<<<< HEAD
=======
memory = 1864.163328
int3c2e [1/1], AO [0:32], ncol = 13924
kpt = [-8.13286544e-01 -8.84490663e-17 -4.06951910e-18]
adapted_ji_idx = [ 36 162 369]
memory = 1864.671232
>>>>>>> f0983ef5bf9ad467b05de206ad1aa900b1c074f6
<<<<<<< HEAD
=======
memory = 1848.352768
int3c2e [1/1], AO [0:32], ncol = 13924
kpt = [-8.13286544e-01 -8.84490663e-17 -4.06951910e-18]
adapted_ji_idx = [ 36 162 369]
memory = 1848.832
>>>>>>> cluster
=======
>>>>>>> b0ebe15b9cb21f72d3133d30b88ad83ae944b1df
=======
>>>>>>> cluster
int3c2e [1/1], AO [0:32], ncol = 13924
Cholesky decomposition for j2c at kpt 13
Symmetry pattern (k - [ 0.20332164 -0.20332164 -0.20332164])*a= 2n pi
    make_kpt for uniq_kptji_ids [13]
kpt = [ 0.20332164 -0.20332164 -0.20332164]
adapted_ji_idx = [ 45  56  68  81  95 110 126 143 161 180 200 221 243 266 290 315 341 368]
<<<<<<< HEAD
<<<<<<< HEAD
<<<<<<< HEAD
<<<<<<< HEAD
=======
>>>>>>> b0ebe15b9cb21f72d3133d30b88ad83ae944b1df
memory = 1848.4224
=======
memory = 1865.478144
>>>>>>> f0983ef5bf9ad467b05de206ad1aa900b1c074f6
<<<<<<< HEAD
=======
memory = 1848.4224
>>>>>>> cluster
=======
>>>>>>> b0ebe15b9cb21f72d3133d30b88ad83ae944b1df
=======
memory = 1848.4224
>>>>>>> cluster
int3c2e [1/1], AO [0:32], ncol = 13924
Symmetry pattern (k + [ 0.20332164 -0.20332164 -0.20332164])*a= 2n pi
    make_kpt for [38]
kpt = [ 0.40664327 -0.40664327 -0.40664327]
adapted_ji_idx = [171 191 212 234 257 281 306 332 359]
<<<<<<< HEAD
<<<<<<< HEAD
<<<<<<< HEAD
<<<<<<< HEAD
memory = 1850.400768
=======
memory = 1866.092544
>>>>>>> f0983ef5bf9ad467b05de206ad1aa900b1c074f6
=======
memory = 1850.400768
>>>>>>> cluster
=======
memory = 1850.400768
=======
memory = 1866.092544
>>>>>>> f0983ef5bf9ad467b05de206ad1aa900b1c074f6
>>>>>>> b0ebe15b9cb21f72d3133d30b88ad83ae944b1df
=======
memory = 1850.400768
>>>>>>> cluster
int3c2e [1/1], AO [0:32], ncol = 13924
Cholesky decomposition for j2c at kpt 14
Symmetry pattern (k - [ 4.06643272e-01  5.55111512e-17 -4.06643272e-01])*a= 2n pi
    make_kpt for uniq_kptji_ids [14 25]
kpt = [ 4.06643272e-01  5.55111512e-17 -4.06643272e-01]
adapted_ji_idx = [ 46  57  82  96 127 144 181 201 244 267 316 342]
<<<<<<< HEAD
<<<<<<< HEAD
<<<<<<< HEAD
<<<<<<< HEAD
=======
>>>>>>> b0ebe15b9cb21f72d3133d30b88ad83ae944b1df
=======
>>>>>>> cluster
memory = 1849.491456
int3c2e [1/1], AO [0:32], ncol = 13924
kpt = [-0.20332164 -0.60996491  0.20332164]
adapted_ji_idx = [ 66 108 159 219 288 366]
memory = 1848.942592
<<<<<<< HEAD
=======
memory = 1865.105408
int3c2e [1/1], AO [0:32], ncol = 13924
kpt = [-0.20332164 -0.60996491  0.20332164]
adapted_ji_idx = [ 66 108 159 219 288 366]
memory = 1864.998912
>>>>>>> f0983ef5bf9ad467b05de206ad1aa900b1c074f6
<<<<<<< HEAD
=======
memory = 1849.491456
int3c2e [1/1], AO [0:32], ncol = 13924
kpt = [-0.20332164 -0.60996491  0.20332164]
adapted_ji_idx = [ 66 108 159 219 288 366]
memory = 1848.942592
>>>>>>> cluster
=======
>>>>>>> b0ebe15b9cb21f72d3133d30b88ad83ae944b1df
=======
>>>>>>> cluster
int3c2e [1/1], AO [0:32], ncol = 13924
Symmetry pattern (k + [ 4.06643272e-01  5.55111512e-17 -4.06643272e-01])*a= 2n pi
    make_kpt for [40 47]
kpt = [ 8.13286544e-01  1.11022302e-16 -8.13286544e-01]
adapted_ji_idx = [173 236 308]
<<<<<<< HEAD
<<<<<<< HEAD
<<<<<<< HEAD
<<<<<<< HEAD
=======
>>>>>>> cluster
memory = 1849.659392
int3c2e [1/1], AO [0:32], ncol = 13924
kpt = [ 0.20332164 -0.60996491 -0.20332164]
adapted_ji_idx = [190 211 256 280 331 358]
memory = 1849.368576
<<<<<<< HEAD
=======
memory = 1864.41728
int3c2e [1/1], AO [0:32], ncol = 13924
kpt = [ 0.20332164 -0.60996491 -0.20332164]
adapted_ji_idx = [190 211 256 280 331 358]
memory = 1864.25344
>>>>>>> f0983ef5bf9ad467b05de206ad1aa900b1c074f6
=======
=======
>>>>>>> b0ebe15b9cb21f72d3133d30b88ad83ae944b1df
memory = 1849.659392
int3c2e [1/1], AO [0:32], ncol = 13924
kpt = [ 0.20332164 -0.60996491 -0.20332164]
adapted_ji_idx = [190 211 256 280 331 358]
memory = 1849.368576
<<<<<<< HEAD
>>>>>>> cluster
=======
=======
memory = 1864.41728
int3c2e [1/1], AO [0:32], ncol = 13924
kpt = [ 0.20332164 -0.60996491 -0.20332164]
adapted_ji_idx = [190 211 256 280 331 358]
memory = 1864.25344
>>>>>>> f0983ef5bf9ad467b05de206ad1aa900b1c074f6
>>>>>>> b0ebe15b9cb21f72d3133d30b88ad83ae944b1df
=======
>>>>>>> cluster
int3c2e [1/1], AO [0:32], ncol = 13924
Cholesky decomposition for j2c at kpt 15
Symmetry pattern (k - [ 0.60996491  0.20332164 -0.60996491])*a= 2n pi
    make_kpt for uniq_kptji_ids [15 22]
kpt = [ 0.60996491  0.20332164 -0.60996491]
adapted_ji_idx = [ 47  83 128 182 245 317]
<<<<<<< HEAD
<<<<<<< HEAD
<<<<<<< HEAD
<<<<<<< HEAD
=======
>>>>>>> b0ebe15b9cb21f72d3133d30b88ad83ae944b1df
=======
>>>>>>> cluster
memory = 1848.991744
int3c2e [1/1], AO [0:32], ncol = 13924
kpt = [ 2.03475955e-18 -4.06643272e-01 -2.03475955e-18]
adapted_ji_idx = [ 55  67  94 109 142 160 199 220 265 289 340 367]
memory = 1849.81504
<<<<<<< HEAD
=======
memory = 1864.609792
int3c2e [1/1], AO [0:32], ncol = 13924
kpt = [ 2.03475955e-18 -4.06643272e-01 -2.03475955e-18]
adapted_ji_idx = [ 55  67  94 109 142 160 199 220 265 289 340 367]
memory = 1866.530816
>>>>>>> f0983ef5bf9ad467b05de206ad1aa900b1c074f6
<<<<<<< HEAD
=======
memory = 1848.991744
int3c2e [1/1], AO [0:32], ncol = 13924
kpt = [ 2.03475955e-18 -4.06643272e-01 -2.03475955e-18]
adapted_ji_idx = [ 55  67  94 109 142 160 199 220 265 289 340 367]
memory = 1849.81504
>>>>>>> cluster
=======
>>>>>>> b0ebe15b9cb21f72d3133d30b88ad83ae944b1df
=======
>>>>>>> cluster
int3c2e [1/1], AO [0:32], ncol = 13924
Symmetry pattern (k + [ 0.60996491  0.20332164 -0.60996491])*a= 2n pi
    make_kpt for [39 50]
kpt = [ 0.60996491 -0.20332164 -0.60996491]
adapted_ji_idx = [172 192 235 258 307 333]
<<<<<<< HEAD
<<<<<<< HEAD
<<<<<<< HEAD
<<<<<<< HEAD
=======
>>>>>>> b0ebe15b9cb21f72d3133d30b88ad83ae944b1df
=======
>>>>>>> cluster
memory = 1849.524224
int3c2e [1/1], AO [0:32], ncol = 13924
kpt = [ 4.06951910e-18 -8.13286544e-01 -4.06951910e-18]
adapted_ji_idx = [210 279 357]
memory = 1849.683968
<<<<<<< HEAD
=======
memory = 1865.56416
int3c2e [1/1], AO [0:32], ncol = 13924
kpt = [ 4.06951910e-18 -8.13286544e-01 -4.06951910e-18]
adapted_ji_idx = [210 279 357]
memory = 1865.162752
>>>>>>> f0983ef5bf9ad467b05de206ad1aa900b1c074f6
<<<<<<< HEAD
=======
memory = 1849.524224
int3c2e [1/1], AO [0:32], ncol = 13924
kpt = [ 4.06951910e-18 -8.13286544e-01 -4.06951910e-18]
adapted_ji_idx = [210 279 357]
memory = 1849.683968
>>>>>>> cluster
=======
>>>>>>> b0ebe15b9cb21f72d3133d30b88ad83ae944b1df
=======
>>>>>>> cluster
int3c2e [1/1], AO [0:32], ncol = 13924
Cholesky decomposition for j2c at kpt 16
Symmetry pattern (k - [ 0.40664327 -0.40664327  0.        ])*a= 2n pi
    make_kpt for uniq_kptji_ids [16 33]
kpt = [ 0.40664327 -0.40664327  0.        ]
adapted_ji_idx = [ 48  59  71  84  98 113 183 203 224 246 269 293]
<<<<<<< HEAD
<<<<<<< HEAD
<<<<<<< HEAD
<<<<<<< HEAD
=======
>>>>>>> b0ebe15b9cb21f72d3133d30b88ad83ae944b1df
=======
>>>>>>> cluster
memory = 1848.434688
int3c2e [1/1], AO [0:32], ncol = 13924
kpt = [-0.20332164  0.20332164 -0.60996491]
adapted_ji_idx = [120 137 155 309 335 362]
memory = 1850.220544
<<<<<<< HEAD
=======
memory = 1864.835072
int3c2e [1/1], AO [0:32], ncol = 13924
kpt = [-0.20332164  0.20332164 -0.60996491]
adapted_ji_idx = [120 137 155 309 335 362]
memory = 1864.613888
>>>>>>> f0983ef5bf9ad467b05de206ad1aa900b1c074f6
<<<<<<< HEAD
=======
memory = 1848.434688
int3c2e [1/1], AO [0:32], ncol = 13924
kpt = [-0.20332164  0.20332164 -0.60996491]
adapted_ji_idx = [120 137 155 309 335 362]
memory = 1850.220544
>>>>>>> cluster
=======
>>>>>>> b0ebe15b9cb21f72d3133d30b88ad83ae944b1df
=======
>>>>>>> cluster
int3c2e [1/1], AO [0:32], ncol = 13924
Symmetry pattern (k + [ 0.40664327 -0.40664327  0.        ])*a= 2n pi
    make_kpt for [44 53]
kpt = [ 0.81328654 -0.81328654  0.        ]
adapted_ji_idx = [177 197 218]
<<<<<<< HEAD
<<<<<<< HEAD
<<<<<<< HEAD
<<<<<<< HEAD
=======
>>>>>>> cluster
memory = 1850.052608
int3c2e [1/1], AO [0:32], ncol = 13924
kpt = [ 0.20332164 -0.20332164 -0.60996491]
adapted_ji_idx = [231 254 278 303 329 356]
memory = 1849.720832
<<<<<<< HEAD
=======
memory = 1864.99072
int3c2e [1/1], AO [0:32], ncol = 13924
kpt = [ 0.20332164 -0.20332164 -0.60996491]
adapted_ji_idx = [231 254 278 303 329 356]
memory = 1863.770112
>>>>>>> f0983ef5bf9ad467b05de206ad1aa900b1c074f6
=======
=======
>>>>>>> b0ebe15b9cb21f72d3133d30b88ad83ae944b1df
memory = 1850.052608
int3c2e [1/1], AO [0:32], ncol = 13924
kpt = [ 0.20332164 -0.20332164 -0.60996491]
adapted_ji_idx = [231 254 278 303 329 356]
memory = 1849.720832
<<<<<<< HEAD
>>>>>>> cluster
=======
=======
memory = 1864.99072
int3c2e [1/1], AO [0:32], ncol = 13924
kpt = [ 0.20332164 -0.20332164 -0.60996491]
adapted_ji_idx = [231 254 278 303 329 356]
memory = 1863.770112
>>>>>>> f0983ef5bf9ad467b05de206ad1aa900b1c074f6
>>>>>>> b0ebe15b9cb21f72d3133d30b88ad83ae944b1df
=======
>>>>>>> cluster
int3c2e [1/1], AO [0:32], ncol = 13924
Cholesky decomposition for j2c at kpt 17
Symmetry pattern (k - [ 0.60996491 -0.20332164 -0.20332164])*a= 2n pi
    make_kpt for uniq_kptji_ids [17 26 34 37]
kpt = [ 0.60996491 -0.20332164 -0.20332164]
adapted_ji_idx = [ 49  60  85  99 184 204 247 270]
<<<<<<< HEAD
<<<<<<< HEAD
<<<<<<< HEAD
<<<<<<< HEAD
=======
>>>>>>> b0ebe15b9cb21f72d3133d30b88ad83ae944b1df
=======
>>>>>>> cluster
memory = 1849.7536
int3c2e [1/1], AO [0:32], ncol = 13924
kpt = [-8.32667268e-17 -8.13286544e-01  4.06643272e-01]
adapted_ji_idx = [ 69 111 222 291]
memory = 1848.578048
int3c2e [1/1], AO [0:32], ncol = 13924
kpt = [ 1.38777878e-16  4.06643272e-01 -8.13286544e-01]
adapted_ji_idx = [121 138 310 336]
memory = 1848.7296
int3c2e [1/1], AO [0:32], ncol = 13924
kpt = [-0.60996491 -0.20332164 -0.20332164]
adapted_ji_idx = [153 360]
memory = 1848.082432
<<<<<<< HEAD
=======
memory = 1864.671232
<<<<<<< HEAD
=======
memory = 1849.7536
>>>>>>> cluster
int3c2e [1/1], AO [0:32], ncol = 13924
kpt = [-8.32667268e-17 -8.13286544e-01  4.06643272e-01]
adapted_ji_idx = [ 69 111 222 291]
memory = 1848.578048
int3c2e [1/1], AO [0:32], ncol = 13924
kpt = [ 1.38777878e-16  4.06643272e-01 -8.13286544e-01]
adapted_ji_idx = [121 138 310 336]
memory = 1848.7296
int3c2e [1/1], AO [0:32], ncol = 13924
kpt = [-0.60996491 -0.20332164 -0.20332164]
adapted_ji_idx = [153 360]
<<<<<<< HEAD
memory = 1865.035776
>>>>>>> f0983ef5bf9ad467b05de206ad1aa900b1c074f6
=======
memory = 1848.082432
>>>>>>> cluster
=======
int3c2e [1/1], AO [0:32], ncol = 13924
kpt = [-8.32667268e-17 -8.13286544e-01  4.06643272e-01]
adapted_ji_idx = [ 69 111 222 291]
memory = 1866.399744
int3c2e [1/1], AO [0:32], ncol = 13924
kpt = [ 1.38777878e-16  4.06643272e-01 -8.13286544e-01]
adapted_ji_idx = [121 138 310 336]
memory = 1865.109504
int3c2e [1/1], AO [0:32], ncol = 13924
kpt = [-0.60996491 -0.20332164 -0.20332164]
adapted_ji_idx = [153 360]
memory = 1865.035776
>>>>>>> f0983ef5bf9ad467b05de206ad1aa900b1c074f6
>>>>>>> b0ebe15b9cb21f72d3133d30b88ad83ae944b1df
=======
>>>>>>> cluster
int3c2e [1/1], AO [0:32], ncol = 13924
Symmetry pattern (k + [ 0.60996491 -0.20332164 -0.20332164])*a= 2n pi
    make_kpt for [46 49 55 56]
kpt = [ 1.21992982 -0.40664327 -0.40664327]
adapted_ji_idx = [179]
<<<<<<< HEAD
<<<<<<< HEAD
<<<<<<< HEAD
<<<<<<< HEAD
=======
>>>>>>> b0ebe15b9cb21f72d3133d30b88ad83ae944b1df
=======
>>>>>>> cluster
memory = 1849.245696
int3c2e [1/1], AO [0:32], ncol = 13924
kpt = [ 0.60996491 -1.01660818  0.20332164]
adapted_ji_idx = [196 217]
memory = 1849.73312
int3c2e [1/1], AO [0:32], ncol = 13924
kpt = [ 0.60996491  0.20332164 -1.01660818]
adapted_ji_idx = [233 305]
memory = 1849.008128
int3c2e [1/1], AO [0:32], ncol = 13924
kpt = [ 8.53014864e-17 -4.06643272e-01 -4.06643272e-01]
adapted_ji_idx = [253 277 328 355]
memory = 1848.672256
<<<<<<< HEAD
=======
memory = 1864.265728
<<<<<<< HEAD
=======
memory = 1849.245696
>>>>>>> cluster
int3c2e [1/1], AO [0:32], ncol = 13924
kpt = [ 0.60996491 -1.01660818  0.20332164]
adapted_ji_idx = [196 217]
memory = 1849.73312
int3c2e [1/1], AO [0:32], ncol = 13924
kpt = [ 0.60996491  0.20332164 -1.01660818]
adapted_ji_idx = [233 305]
memory = 1849.008128
int3c2e [1/1], AO [0:32], ncol = 13924
kpt = [ 8.53014864e-17 -4.06643272e-01 -4.06643272e-01]
adapted_ji_idx = [253 277 328 355]
<<<<<<< HEAD
memory = 1863.774208
>>>>>>> f0983ef5bf9ad467b05de206ad1aa900b1c074f6
=======
memory = 1848.672256
>>>>>>> cluster
=======
int3c2e [1/1], AO [0:32], ncol = 13924
kpt = [ 0.60996491 -1.01660818  0.20332164]
adapted_ji_idx = [196 217]
memory = 1864.097792
int3c2e [1/1], AO [0:32], ncol = 13924
kpt = [ 0.60996491  0.20332164 -1.01660818]
adapted_ji_idx = [233 305]
memory = 1864.33536
int3c2e [1/1], AO [0:32], ncol = 13924
kpt = [ 8.53014864e-17 -4.06643272e-01 -4.06643272e-01]
adapted_ji_idx = [253 277 328 355]
memory = 1863.774208
>>>>>>> f0983ef5bf9ad467b05de206ad1aa900b1c074f6
>>>>>>> b0ebe15b9cb21f72d3133d30b88ad83ae944b1df
=======
>>>>>>> cluster
int3c2e [1/1], AO [0:32], ncol = 13924
Cholesky decomposition for j2c at kpt 18
Symmetry pattern (k - [ 8.13286544e-01  8.32667268e-17 -4.06643272e-01])*a= 2n pi
    make_kpt for uniq_kptji_ids [18 23 35 36]
kpt = [ 8.13286544e-01  8.32667268e-17 -4.06643272e-01]
adapted_ji_idx = [ 50  86 185 248]
<<<<<<< HEAD
<<<<<<< HEAD
<<<<<<< HEAD
<<<<<<< HEAD
=======
>>>>>>> cluster
memory = 1848.434688
int3c2e [1/1], AO [0:32], ncol = 13924
kpt = [ 0.20332164 -0.60996491  0.20332164]
adapted_ji_idx = [ 58  70  97 112 202 223 268 292]
memory = 1849.38496
int3c2e [1/1], AO [0:32], ncol = 13924
kpt = [ 0.20332164  0.60996491 -1.01660818]
adapted_ji_idx = [122 311]
memory = 1849.462784
int3c2e [1/1], AO [0:32], ncol = 13924
kpt = [-4.06643272e-01 -1.64689575e-17 -4.06643272e-01]
adapted_ji_idx = [136 154 334 361]
memory = 1848.885248
<<<<<<< HEAD
=======
memory = 1865.91232
=======
=======
>>>>>>> b0ebe15b9cb21f72d3133d30b88ad83ae944b1df
memory = 1848.434688
>>>>>>> cluster
int3c2e [1/1], AO [0:32], ncol = 13924
kpt = [ 0.20332164 -0.60996491  0.20332164]
adapted_ji_idx = [ 58  70  97 112 202 223 268 292]
memory = 1849.38496
int3c2e [1/1], AO [0:32], ncol = 13924
kpt = [ 0.20332164  0.60996491 -1.01660818]
adapted_ji_idx = [122 311]
memory = 1849.462784
int3c2e [1/1], AO [0:32], ncol = 13924
kpt = [-4.06643272e-01 -1.64689575e-17 -4.06643272e-01]
adapted_ji_idx = [136 154 334 361]
<<<<<<< HEAD
memory = 1864.25344
>>>>>>> f0983ef5bf9ad467b05de206ad1aa900b1c074f6
=======
memory = 1848.885248
<<<<<<< HEAD
>>>>>>> cluster
=======
=======
memory = 1865.91232
int3c2e [1/1], AO [0:32], ncol = 13924
kpt = [ 0.20332164 -0.60996491  0.20332164]
adapted_ji_idx = [ 58  70  97 112 202 223 268 292]
memory = 1865.273344
int3c2e [1/1], AO [0:32], ncol = 13924
kpt = [ 0.20332164  0.60996491 -1.01660818]
adapted_ji_idx = [122 311]
memory = 1864.925184
int3c2e [1/1], AO [0:32], ncol = 13924
kpt = [-4.06643272e-01 -1.64689575e-17 -4.06643272e-01]
adapted_ji_idx = [136 154 334 361]
memory = 1864.25344
>>>>>>> f0983ef5bf9ad467b05de206ad1aa900b1c074f6
>>>>>>> b0ebe15b9cb21f72d3133d30b88ad83ae944b1df
=======
>>>>>>> cluster
int3c2e [1/1], AO [0:32], ncol = 13924
Symmetry pattern (k + [ 8.13286544e-01  8.32667268e-17 -4.06643272e-01])*a= 2n pi
    make_kpt for [45 52 54 57]
kpt = [ 1.01660818 -0.60996491 -0.20332164]
adapted_ji_idx = [178 198]
<<<<<<< HEAD
<<<<<<< HEAD
<<<<<<< HEAD
<<<<<<< HEAD
=======
>>>>>>> b0ebe15b9cb21f72d3133d30b88ad83ae944b1df
=======
>>>>>>> cluster
memory = 1849.167872
int3c2e [1/1], AO [0:32], ncol = 13924
kpt = [ 0.40664327 -1.21992982  0.40664327]
adapted_ji_idx = [216]
memory = 1848.520704
int3c2e [1/1], AO [0:32], ncol = 13924
kpt = [ 4.06643272e-01  5.55111512e-17 -8.13286544e-01]
adapted_ji_idx = [232 255 304 330]
memory = 1849.372672
int3c2e [1/1], AO [0:32], ncol = 13924
kpt = [-0.20332164 -0.60996491 -0.20332164]
adapted_ji_idx = [276 354]
memory = 1849.790464
<<<<<<< HEAD
=======
memory = 1863.745536
<<<<<<< HEAD
=======
memory = 1849.167872
>>>>>>> cluster
int3c2e [1/1], AO [0:32], ncol = 13924
kpt = [ 0.40664327 -1.21992982  0.40664327]
adapted_ji_idx = [216]
memory = 1848.520704
int3c2e [1/1], AO [0:32], ncol = 13924
kpt = [ 4.06643272e-01  5.55111512e-17 -8.13286544e-01]
adapted_ji_idx = [232 255 304 330]
memory = 1849.372672
int3c2e [1/1], AO [0:32], ncol = 13924
kpt = [-0.20332164 -0.60996491 -0.20332164]
adapted_ji_idx = [276 354]
<<<<<<< HEAD
memory = 1866.498048
>>>>>>> f0983ef5bf9ad467b05de206ad1aa900b1c074f6
=======
memory = 1849.790464
>>>>>>> cluster
=======
int3c2e [1/1], AO [0:32], ncol = 13924
kpt = [ 0.40664327 -1.21992982  0.40664327]
adapted_ji_idx = [216]
memory = 1863.983104
int3c2e [1/1], AO [0:32], ncol = 13924
kpt = [ 4.06643272e-01  5.55111512e-17 -8.13286544e-01]
adapted_ji_idx = [232 255 304 330]
memory = 1864.00768
int3c2e [1/1], AO [0:32], ncol = 13924
kpt = [-0.20332164 -0.60996491 -0.20332164]
adapted_ji_idx = [276 354]
memory = 1866.498048
>>>>>>> f0983ef5bf9ad467b05de206ad1aa900b1c074f6
>>>>>>> b0ebe15b9cb21f72d3133d30b88ad83ae944b1df
=======
>>>>>>> cluster
int3c2e [1/1], AO [0:32], ncol = 13924
Cholesky decomposition for j2c at kpt 19
Symmetry pattern (k - [ 0.60996491 -0.60996491  0.20332164])*a= 2n pi
    make_kpt for uniq_kptji_ids [19 28]
kpt = [ 0.60996491 -0.60996491  0.20332164]
adapted_ji_idx = [ 51  62  74 186 206 227]
<<<<<<< HEAD
<<<<<<< HEAD
<<<<<<< HEAD
<<<<<<< HEAD
=======
>>>>>>> b0ebe15b9cb21f72d3133d30b88ad83ae944b1df
=======
>>>>>>> cluster
memory = 1850.028032
int3c2e [1/1], AO [0:32], ncol = 13924
kpt = [ 7.60496279e-17  7.21709899e-18 -4.06643272e-01]
adapted_ji_idx = [ 78  92 107 123 140 158 240 263 287 312 338 365]
memory = 1849.81504
<<<<<<< HEAD
=======
memory = 1865.183232
int3c2e [1/1], AO [0:32], ncol = 13924
kpt = [ 7.60496279e-17  7.21709899e-18 -4.06643272e-01]
adapted_ji_idx = [ 78  92 107 123 140 158 240 263 287 312 338 365]
memory = 1864.994816
>>>>>>> f0983ef5bf9ad467b05de206ad1aa900b1c074f6
<<<<<<< HEAD
=======
memory = 1850.028032
int3c2e [1/1], AO [0:32], ncol = 13924
kpt = [ 7.60496279e-17  7.21709899e-18 -4.06643272e-01]
adapted_ji_idx = [ 78  92 107 123 140 158 240 263 287 312 338 365]
memory = 1849.81504
>>>>>>> cluster
=======
>>>>>>> b0ebe15b9cb21f72d3133d30b88ad83ae944b1df
=======
>>>>>>> cluster
int3c2e [1/1], AO [0:32], ncol = 13924
Symmetry pattern (k + [ 0.60996491 -0.60996491  0.20332164])*a= 2n pi
    make_kpt for [41 58]
kpt = [ 0.60996491 -0.60996491 -0.20332164]
adapted_ji_idx = [174 194 215 237 260 284]
<<<<<<< HEAD
<<<<<<< HEAD
<<<<<<< HEAD
<<<<<<< HEAD
=======
>>>>>>> cluster
memory = 1850.20416
int3c2e [1/1], AO [0:32], ncol = 13924
kpt = [ 1.52099256e-16  1.44341980e-17 -8.13286544e-01]
adapted_ji_idx = [300 326 353]
memory = 1850.04032
<<<<<<< HEAD
=======
memory = 1865.09312
int3c2e [1/1], AO [0:32], ncol = 13924
kpt = [ 1.52099256e-16  1.44341980e-17 -8.13286544e-01]
adapted_ji_idx = [300 326 353]
memory = 1865.76896
>>>>>>> f0983ef5bf9ad467b05de206ad1aa900b1c074f6
=======
=======
>>>>>>> b0ebe15b9cb21f72d3133d30b88ad83ae944b1df
memory = 1850.20416
int3c2e [1/1], AO [0:32], ncol = 13924
kpt = [ 1.52099256e-16  1.44341980e-17 -8.13286544e-01]
adapted_ji_idx = [300 326 353]
memory = 1850.04032
<<<<<<< HEAD
>>>>>>> cluster
=======
=======
memory = 1865.09312
int3c2e [1/1], AO [0:32], ncol = 13924
kpt = [ 1.52099256e-16  1.44341980e-17 -8.13286544e-01]
adapted_ji_idx = [300 326 353]
memory = 1865.76896
>>>>>>> f0983ef5bf9ad467b05de206ad1aa900b1c074f6
>>>>>>> b0ebe15b9cb21f72d3133d30b88ad83ae944b1df
=======
>>>>>>> cluster
int3c2e [1/1], AO [0:32], ncol = 13924
Cholesky decomposition for j2c at kpt 20
Symmetry pattern (k - [ 0.81328654 -0.40664327  0.        ])*a= 2n pi
    make_kpt for uniq_kptji_ids [20 27 29 32]
kpt = [ 0.81328654 -0.40664327  0.        ]
adapted_ji_idx = [ 52  63 187 207]
<<<<<<< HEAD
<<<<<<< HEAD
<<<<<<< HEAD
<<<<<<< HEAD
=======
>>>>>>> b0ebe15b9cb21f72d3133d30b88ad83ae944b1df
=======
>>>>>>> cluster
memory = 1848.27904
int3c2e [1/1], AO [0:32], ncol = 13924
kpt = [ 0.20332164 -1.01660818  0.60996491]
adapted_ji_idx = [ 72 225]
memory = 1848.676352
int3c2e [1/1], AO [0:32], ncol = 13924
kpt = [ 0.20332164  0.20332164 -0.60996491]
adapted_ji_idx = [ 79  93 124 141 241 264 313 339]
memory = 1848.123392
int3c2e [1/1], AO [0:32], ncol = 13924
kpt = [-4.06643272e-01 -4.06643272e-01 -4.06951910e-18]
adapted_ji_idx = [105 156 285 363]
memory = 1850.785792
<<<<<<< HEAD
=======
memory = 1864.327168
<<<<<<< HEAD
=======
memory = 1848.27904
>>>>>>> cluster
int3c2e [1/1], AO [0:32], ncol = 13924
kpt = [ 0.20332164 -1.01660818  0.60996491]
adapted_ji_idx = [ 72 225]
memory = 1848.676352
int3c2e [1/1], AO [0:32], ncol = 13924
kpt = [ 0.20332164  0.20332164 -0.60996491]
adapted_ji_idx = [ 79  93 124 141 241 264 313 339]
memory = 1848.123392
int3c2e [1/1], AO [0:32], ncol = 13924
kpt = [-4.06643272e-01 -4.06643272e-01 -4.06951910e-18]
adapted_ji_idx = [105 156 285 363]
<<<<<<< HEAD
memory = 1864.433664
>>>>>>> f0983ef5bf9ad467b05de206ad1aa900b1c074f6
=======
memory = 1850.785792
>>>>>>> cluster
=======
int3c2e [1/1], AO [0:32], ncol = 13924
kpt = [ 0.20332164 -1.01660818  0.60996491]
adapted_ji_idx = [ 72 225]
memory = 1865.064448
int3c2e [1/1], AO [0:32], ncol = 13924
kpt = [ 0.20332164  0.20332164 -0.60996491]
adapted_ji_idx = [ 79  93 124 141 241 264 313 339]
memory = 1864.515584
int3c2e [1/1], AO [0:32], ncol = 13924
kpt = [-4.06643272e-01 -4.06643272e-01 -4.06951910e-18]
adapted_ji_idx = [105 156 285 363]
memory = 1864.433664
>>>>>>> f0983ef5bf9ad467b05de206ad1aa900b1c074f6
>>>>>>> b0ebe15b9cb21f72d3133d30b88ad83ae944b1df
=======
>>>>>>> cluster
int3c2e [1/1], AO [0:32], ncol = 13924
Symmetry pattern (k + [ 0.81328654 -0.40664327  0.        ])*a= 2n pi
    make_kpt for [43 48 60 61]
kpt = [ 1.01660818 -0.20332164 -0.60996491]
adapted_ji_idx = [176 239]
<<<<<<< HEAD
<<<<<<< HEAD
<<<<<<< HEAD
<<<<<<< HEAD
=======
>>>>>>> b0ebe15b9cb21f72d3133d30b88ad83ae944b1df
=======
>>>>>>> cluster
memory = 1850.126336
int3c2e [1/1], AO [0:32], ncol = 13924
kpt = [ 0.40664327 -0.81328654  0.        ]
adapted_ji_idx = [193 214 259 283]
memory = 1849.77408
int3c2e [1/1], AO [0:32], ncol = 13924
kpt = [ 0.40664327  0.40664327 -1.21992982]
adapted_ji_idx = [302]
memory = 1848.922112
int3c2e [1/1], AO [0:32], ncol = 13924
kpt = [-0.20332164 -0.20332164 -0.60996491]
adapted_ji_idx = [325 352]
memory = 1849.626624
<<<<<<< HEAD
=======
memory = 1864.224768
<<<<<<< HEAD
=======
memory = 1850.126336
>>>>>>> cluster
int3c2e [1/1], AO [0:32], ncol = 13924
kpt = [ 0.40664327 -0.81328654  0.        ]
adapted_ji_idx = [193 214 259 283]
memory = 1849.77408
int3c2e [1/1], AO [0:32], ncol = 13924
kpt = [ 0.40664327  0.40664327 -1.21992982]
adapted_ji_idx = [302]
memory = 1848.922112
int3c2e [1/1], AO [0:32], ncol = 13924
kpt = [-0.20332164 -0.20332164 -0.60996491]
adapted_ji_idx = [325 352]
<<<<<<< HEAD
memory = 1863.327744
>>>>>>> f0983ef5bf9ad467b05de206ad1aa900b1c074f6
=======
memory = 1849.626624
>>>>>>> cluster
=======
int3c2e [1/1], AO [0:32], ncol = 13924
kpt = [ 0.40664327 -0.81328654  0.        ]
adapted_ji_idx = [193 214 259 283]
memory = 1863.999488
int3c2e [1/1], AO [0:32], ncol = 13924
kpt = [ 0.40664327  0.40664327 -1.21992982]
adapted_ji_idx = [302]
memory = 1864.302592
int3c2e [1/1], AO [0:32], ncol = 13924
kpt = [-0.20332164 -0.20332164 -0.60996491]
adapted_ji_idx = [325 352]
memory = 1863.327744
>>>>>>> f0983ef5bf9ad467b05de206ad1aa900b1c074f6
>>>>>>> b0ebe15b9cb21f72d3133d30b88ad83ae944b1df
=======
>>>>>>> cluster
int3c2e [1/1], AO [0:32], ncol = 13924
Cholesky decomposition for j2c at kpt 21
Symmetry pattern (k - [ 1.01660818 -0.20332164 -0.20332164])*a= 2n pi
    make_kpt for uniq_kptji_ids [21 24 30 31]
kpt = [ 1.01660818 -0.20332164 -0.20332164]
adapted_ji_idx = [ 53 188]
<<<<<<< HEAD
<<<<<<< HEAD
<<<<<<< HEAD
<<<<<<< HEAD
=======
>>>>>>> b0ebe15b9cb21f72d3133d30b88ad83ae944b1df
=======
>>>>>>> cluster
memory = 1849.516032
int3c2e [1/1], AO [0:32], ncol = 13924
kpt = [ 0.40664327 -0.81328654  0.40664327]
adapted_ji_idx = [ 61  73 205 226]
memory = 1849.397248
int3c2e [1/1], AO [0:32], ncol = 13924
kpt = [ 0.40664327  0.40664327 -0.81328654]
adapted_ji_idx = [ 80 125 242 314]
memory = 1849.810944
int3c2e [1/1], AO [0:32], ncol = 13924
kpt = [-0.20332164 -0.20332164 -0.20332164]
adapted_ji_idx = [ 91 106 139 157 262 286 337 364]
memory = 1850.044416
<<<<<<< HEAD
=======
memory = 1863.954432
<<<<<<< HEAD
=======
memory = 1849.516032
>>>>>>> cluster
int3c2e [1/1], AO [0:32], ncol = 13924
kpt = [ 0.40664327 -0.81328654  0.40664327]
adapted_ji_idx = [ 61  73 205 226]
memory = 1849.397248
int3c2e [1/1], AO [0:32], ncol = 13924
kpt = [ 0.40664327  0.40664327 -0.81328654]
adapted_ji_idx = [ 80 125 242 314]
memory = 1849.810944
int3c2e [1/1], AO [0:32], ncol = 13924
kpt = [-0.20332164 -0.20332164 -0.20332164]
adapted_ji_idx = [ 91 106 139 157 262 286 337 364]
<<<<<<< HEAD
memory = 1864.54016
>>>>>>> f0983ef5bf9ad467b05de206ad1aa900b1c074f6
=======
memory = 1850.044416
>>>>>>> cluster
=======
int3c2e [1/1], AO [0:32], ncol = 13924
kpt = [ 0.40664327 -0.81328654  0.40664327]
adapted_ji_idx = [ 61  73 205 226]
memory = 1863.827456
int3c2e [1/1], AO [0:32], ncol = 13924
kpt = [ 0.40664327  0.40664327 -0.81328654]
adapted_ji_idx = [ 80 125 242 314]
memory = 1864.982528
int3c2e [1/1], AO [0:32], ncol = 13924
kpt = [-0.20332164 -0.20332164 -0.20332164]
adapted_ji_idx = [ 91 106 139 157 262 286 337 364]
memory = 1864.54016
>>>>>>> f0983ef5bf9ad467b05de206ad1aa900b1c074f6
>>>>>>> b0ebe15b9cb21f72d3133d30b88ad83ae944b1df
=======
>>>>>>> cluster
int3c2e [1/1], AO [0:32], ncol = 13924
Symmetry pattern (k + [ 1.01660818 -0.20332164 -0.20332164])*a= 2n pi
    make_kpt for [42 51 59 62]
kpt = [ 0.81328654 -0.40664327 -0.40664327]
adapted_ji_idx = [175 195 238 261]
<<<<<<< HEAD
<<<<<<< HEAD
<<<<<<< HEAD
<<<<<<< HEAD
=======
>>>>>>> b0ebe15b9cb21f72d3133d30b88ad83ae944b1df
=======
>>>>>>> cluster
memory = 1850.535936
int3c2e [1/1], AO [0:32], ncol = 13924
kpt = [ 0.20332164 -1.01660818  0.20332164]
adapted_ji_idx = [213 282]
memory = 1849.87648
int3c2e [1/1], AO [0:32], ncol = 13924
kpt = [ 0.20332164  0.20332164 -1.01660818]
adapted_ji_idx = [301 327]
memory = 1849.847808
int3c2e [1/1], AO [0:32], ncol = 13924
kpt = [-0.40664327 -0.40664327 -0.40664327]
adapted_ji_idx = [351]
memory = 1849.827328
int3c2e [1/1], AO [0:32], ncol = 13924
    CPU time for j3c  59071.64 sec, wall time   2161.10 sec
    CPU time for Init get_k_kpts  59072.30 sec, wall time   2161.12 sec
    CPU time for get_k_kpts: make_kpt ki>=kj (0,*)      5.95 sec, wall time      0.27 sec
    CPU time for get_k_kpts: make_kpt ki>=kj (1,*)     11.67 sec, wall time      0.37 sec
    CPU time for get_k_kpts: make_kpt ki>=kj (2,*)     19.55 sec, wall time      0.62 sec
    CPU time for get_k_kpts: make_kpt ki>=kj (3,*)     22.16 sec, wall time      0.71 sec
    CPU time for get_k_kpts: make_kpt ki>=kj (4,*)     27.24 sec, wall time      0.86 sec
    CPU time for get_k_kpts: make_kpt ki>=kj (5,*)     31.71 sec, wall time      1.00 sec
    CPU time for get_k_kpts: make_kpt ki>=kj (6,*)     38.66 sec, wall time      1.22 sec
    CPU time for get_k_kpts: make_kpt ki>=kj (7,*)     48.52 sec, wall time      1.54 sec
    CPU time for get_k_kpts: make_kpt ki>=kj (8,*)     50.18 sec, wall time      1.60 sec
    CPU time for get_k_kpts: make_kpt ki>=kj (9,*)     56.13 sec, wall time      1.78 sec
    CPU time for get_k_kpts: make_kpt ki>=kj (10,*)     57.72 sec, wall time      1.82 sec
    CPU time for get_k_kpts: make_kpt ki>=kj (11,*)     68.94 sec, wall time      2.19 sec
    CPU time for get_k_kpts: make_kpt ki>=kj (12,*)     69.93 sec, wall time      2.21 sec
    CPU time for get_k_kpts: make_kpt ki>=kj (13,*)     75.82 sec, wall time      2.44 sec
    CPU time for get_k_kpts: make_kpt ki>=kj (14,*)     76.02 sec, wall time      2.39 sec
    CPU time for get_k_kpts: make_kpt ki>=kj (15,*)     82.32 sec, wall time      2.59 sec
    CPU time for get_k_kpts: make_kpt ki>=kj (16,*)     92.70 sec, wall time      2.92 sec
    CPU time for get_k_kpts: make_kpt ki>=kj (17,*)     92.33 sec, wall time      2.91 sec
    CPU time for get_k_kpts: make_kpt ki>=kj (18,*)    103.07 sec, wall time      3.24 sec
    CPU time for get_k_kpts: make_kpt ki>=kj (19,*)    116.17 sec, wall time      3.66 sec
    CPU time for get_k_kpts: make_kpt ki>=kj (20,*)    110.42 sec, wall time      3.47 sec
    CPU time for get_k_kpts: make_kpt ki>=kj (21,*)    111.30 sec, wall time      3.51 sec
    CPU time for get_k_kpts: make_kpt ki>=kj (22,*)    133.10 sec, wall time      4.31 sec
    CPU time for get_k_kpts: make_kpt ki>=kj (23,*)    138.46 sec, wall time      4.41 sec
    CPU time for get_k_kpts: make_kpt ki>=kj (24,*)    132.56 sec, wall time      4.18 sec
    CPU time for get_k_kpts: make_kpt ki>=kj (25,*)    146.24 sec, wall time      4.60 sec
    CPU time for get_k_kpts: make_kpt ki>=kj (26,*)    172.25 sec, wall time      5.41 sec
Monkhorst pack size [3 3 3] ew_eta 1.3749109234332217 ew_cut 5.114582727547651
Ewald components = 0, -0.775823048153945, 0.701640797011738
    CPU time for get_j pass 1     72.33 sec, wall time      2.43 sec
    CPU time for get_j pass 2      5.87 sec, wall time      1.48 sec
    CPU time for vj and vk  61246.22 sec, wall time   2231.40 sec
Ewald components = 1.25967104982813e-135, -881.045459580493, 778.181077139905
E1 = (-615.9283464232993-1.1481941940437598e-15j)  E_coul = (135.27971262736028+1.3005286148415751e-15j)
<<<<<<< HEAD
=======
memory = 1866.358784
<<<<<<< HEAD
=======
memory = 1850.535936
>>>>>>> cluster
int3c2e [1/1], AO [0:32], ncol = 13924
kpt = [ 0.20332164 -1.01660818  0.20332164]
adapted_ji_idx = [213 282]
memory = 1849.87648
int3c2e [1/1], AO [0:32], ncol = 13924
kpt = [ 0.20332164  0.20332164 -1.01660818]
adapted_ji_idx = [301 327]
memory = 1849.847808
int3c2e [1/1], AO [0:32], ncol = 13924
kpt = [-0.40664327 -0.40664327 -0.40664327]
adapted_ji_idx = [351]
memory = 1849.827328
int3c2e [1/1], AO [0:32], ncol = 13924
    CPU time for j3c  59071.64 sec, wall time   2161.10 sec
    CPU time for Init get_k_kpts  59072.30 sec, wall time   2161.12 sec
    CPU time for get_k_kpts: make_kpt ki>=kj (0,*)      5.95 sec, wall time      0.27 sec
    CPU time for get_k_kpts: make_kpt ki>=kj (1,*)     11.67 sec, wall time      0.37 sec
    CPU time for get_k_kpts: make_kpt ki>=kj (2,*)     19.55 sec, wall time      0.62 sec
    CPU time for get_k_kpts: make_kpt ki>=kj (3,*)     22.16 sec, wall time      0.71 sec
    CPU time for get_k_kpts: make_kpt ki>=kj (4,*)     27.24 sec, wall time      0.86 sec
    CPU time for get_k_kpts: make_kpt ki>=kj (5,*)     31.71 sec, wall time      1.00 sec
    CPU time for get_k_kpts: make_kpt ki>=kj (6,*)     38.66 sec, wall time      1.22 sec
    CPU time for get_k_kpts: make_kpt ki>=kj (7,*)     48.52 sec, wall time      1.54 sec
    CPU time for get_k_kpts: make_kpt ki>=kj (8,*)     50.18 sec, wall time      1.60 sec
    CPU time for get_k_kpts: make_kpt ki>=kj (9,*)     56.13 sec, wall time      1.78 sec
    CPU time for get_k_kpts: make_kpt ki>=kj (10,*)     57.72 sec, wall time      1.82 sec
    CPU time for get_k_kpts: make_kpt ki>=kj (11,*)     68.94 sec, wall time      2.19 sec
    CPU time for get_k_kpts: make_kpt ki>=kj (12,*)     69.93 sec, wall time      2.21 sec
    CPU time for get_k_kpts: make_kpt ki>=kj (13,*)     75.82 sec, wall time      2.44 sec
    CPU time for get_k_kpts: make_kpt ki>=kj (14,*)     76.02 sec, wall time      2.39 sec
    CPU time for get_k_kpts: make_kpt ki>=kj (15,*)     82.32 sec, wall time      2.59 sec
    CPU time for get_k_kpts: make_kpt ki>=kj (16,*)     92.70 sec, wall time      2.92 sec
    CPU time for get_k_kpts: make_kpt ki>=kj (17,*)     92.33 sec, wall time      2.91 sec
    CPU time for get_k_kpts: make_kpt ki>=kj (18,*)    103.07 sec, wall time      3.24 sec
    CPU time for get_k_kpts: make_kpt ki>=kj (19,*)    116.17 sec, wall time      3.66 sec
    CPU time for get_k_kpts: make_kpt ki>=kj (20,*)    110.42 sec, wall time      3.47 sec
    CPU time for get_k_kpts: make_kpt ki>=kj (21,*)    111.30 sec, wall time      3.51 sec
    CPU time for get_k_kpts: make_kpt ki>=kj (22,*)    133.10 sec, wall time      4.31 sec
    CPU time for get_k_kpts: make_kpt ki>=kj (23,*)    138.46 sec, wall time      4.41 sec
    CPU time for get_k_kpts: make_kpt ki>=kj (24,*)    132.56 sec, wall time      4.18 sec
    CPU time for get_k_kpts: make_kpt ki>=kj (25,*)    146.24 sec, wall time      4.60 sec
    CPU time for get_k_kpts: make_kpt ki>=kj (26,*)    172.25 sec, wall time      5.41 sec
Monkhorst pack size [3 3 3] ew_eta 1.3749109234332217 ew_cut 5.114582727547651
Ewald components = 0, -0.775823048153945, 0.701640797011738
    CPU time for get_j pass 1     72.33 sec, wall time      2.43 sec
    CPU time for get_j pass 2      5.87 sec, wall time      1.48 sec
    CPU time for vj and vk  61246.22 sec, wall time   2231.40 sec
Ewald components = 1.25967104982813e-135, -881.045459580493, 778.181077139905
<<<<<<< HEAD
E1 = (-615.9283464232993-1.1481941940437598e-15j)  E_coul = (135.27971262736025+1.3028415794762108e-15j)
>>>>>>> f0983ef5bf9ad467b05de206ad1aa900b1c074f6
=======
E1 = (-615.9283464232993-1.1481941940437598e-15j)  E_coul = (135.27971262736028+1.3005286148415751e-15j)
>>>>>>> cluster
=======
int3c2e [1/1], AO [0:32], ncol = 13924
kpt = [ 0.20332164 -1.01660818  0.20332164]
adapted_ji_idx = [213 282]
memory = 1865.44128
int3c2e [1/1], AO [0:32], ncol = 13924
kpt = [ 0.20332164  0.20332164 -1.01660818]
adapted_ji_idx = [301 327]
memory = 1865.601024
int3c2e [1/1], AO [0:32], ncol = 13924
kpt = [-0.40664327 -0.40664327 -0.40664327]
adapted_ji_idx = [351]
memory = 1864.679424
[...]
 19.60998798 23.45471173 23.45493115 23.49787193 23.56135113 23.56135116
 27.80464268 27.80561776 27.80561781 27.8096674  27.80983361 27.80983362
 27.82067539 34.26512651 34.30329193 34.31557939 34.31557942 34.41598816
 36.65363629 36.65363633 36.67032771 43.42092579 43.71801882 43.71801886
 47.05509672 73.80742378]
  21 ( 0.667  0.333 -0.000)   [-7.94544287e+01 -5.80495282e+01 -7.00456410e+00 -4.89921713e+00
 -4.89921678e+00 -4.89921315e+00 -4.46021750e+00 -2.77526574e+00
 -2.77525765e+00 -2.77524336e+00 -3.38459735e-01 -9.67332562e-02
 -2.28722032e-02  6.96124944e-02] [ 0.50455621  0.65822013  0.72324183  0.73775122  0.77789795  0.79241276
  1.03421504  1.04916038  1.11850256  1.12902777  1.1612505   1.1852463
  1.25345099  1.29642424  1.37644633  1.39496465  1.39730977  1.45238987
  1.54919785  1.56461212  1.62372321  1.67520374  1.68828371  1.76344368
  1.87942901  1.92400344  1.9357821   1.99148283  2.00276118  2.06234249
  2.11690723  2.23832691  2.29717999  2.33277944  2.40559425  2.52508235
  2.57299666  2.62003678  2.67643772  2.74464773  2.76299899  2.79714653
  2.85326726  2.90468028  2.93107025  3.01089741  3.15056298  3.44948409
  3.52220822  3.59469913  3.63597588  3.85313143  3.89544874  4.09316059
  5.79420017  5.79796415  5.9881071   5.99063355  6.12479618  8.23137934
  8.24093331  8.26074487  8.31520317  8.42122705  8.88740388 10.51137649
 10.57571717 10.57678148 11.20290654 11.36080188 11.54439414 13.68634851
 19.5957967  19.59833246 19.6010807  19.60185503 19.6084432  19.61082665
 19.61251778 23.43248794 23.43249091 23.53082167 23.53727556 23.60943603
 27.80343638 27.80506665 27.80516782 27.81041802 27.81202719 27.81284191
 27.81811762 34.29075387 34.29727218 34.30713717 34.35386192 34.39270436
 36.60256016 36.66075549 36.67085768 43.35593896 43.53720103 43.75039904
 46.90826158 73.83707642]
  22 ( 0.667  0.333  0.333)   [-7.94544287e+01 -5.80495282e+01 -7.00456410e+00 -4.89921713e+00
 -4.89921678e+00 -4.89921315e+00 -4.46021750e+00 -2.77526574e+00
 -2.77525765e+00 -2.77524336e+00 -3.38459725e-01 -9.67332760e-02
 -2.28722535e-02  6.96125986e-02] [ 0.50455626  0.65822002  0.72324189  0.73775117  0.77789788  0.79241281
  1.03421507  1.04916045  1.11850252  1.12902778  1.16125051  1.18524623
  1.25345092  1.2964242   1.37644634  1.3949647   1.39730973  1.45238988
  1.54919783  1.56461218  1.62372325  1.67520382  1.68828382  1.76344373
  1.879429    1.9240034   1.93578204  1.9914828   2.00276113  2.06234248
  2.11690723  2.23832691  2.29718006  2.33277945  2.40559418  2.52508228
  2.57299674  2.62003679  2.67643766  2.74464772  2.762999    2.79714644
  2.85326726  2.90468027  2.93107018  3.01089742  3.150563    3.44948411
  3.52220824  3.59469914  3.63597587  3.85313144  3.89544874  4.09316059
  5.79420017  5.7979642   5.98810705  5.99063363  6.1247961   8.23137928
  8.24093336  8.26074487  8.31520316  8.42122705  8.88740389 10.51137648
 10.57571725 10.57678142 11.20290659 11.36080183 11.54439414 13.68634853
 19.59579676 19.59833242 19.60108071 19.60185503 19.60844325 19.61082659
 19.61251778 23.43248794 23.43249093 23.53082165 23.53727559 23.609436
 27.80343639 27.8050667  27.80516776 27.81041803 27.81202721 27.8128419
 27.81811761 34.29075385 34.29727221 34.30713717 34.35386192 34.39270436
 36.60256014 36.66075546 36.67085772 43.35593899 43.537201   43.75039905
 46.90826158 73.83707643]
  23 ( 0.667  0.333  0.667)   [-7.94544287e+01 -5.80495282e+01 -7.00456410e+00 -4.89921713e+00
 -4.89921678e+00 -4.89921315e+00 -4.46021750e+00 -2.77526574e+00
 -2.77525765e+00 -2.77524336e+00 -3.38459725e-01 -9.67332761e-02
 -2.28722535e-02  6.96125987e-02] [ 0.50455626  0.65822002  0.72324189  0.73775117  0.77789788  0.79241281
  1.03421507  1.04916045  1.11850252  1.12902778  1.16125051  1.18524623
  1.25345092  1.2964242   1.37644633  1.3949647   1.39730972  1.45238988
  1.54919783  1.56461217  1.62372325  1.67520382  1.68828382  1.76344373
  1.879429    1.92400339  1.93578205  1.99148279  2.00276114  2.06234248
  2.11690723  2.2383269   2.29718005  2.33277945  2.40559416  2.52508228
  2.57299674  2.62003679  2.67643766  2.74464772  2.76299901  2.79714644
  2.85326725  2.90468023  2.93107018  3.01089743  3.150563    3.44948411
  3.52220823  3.59469915  3.63597588  3.85313144  3.89544873  4.0931606
  5.79420017  5.7979642   5.98810706  5.99063363  6.1247961   8.23137928
  8.24093337  8.26074486  8.31520317  8.42122705  8.88740389 10.51137648
 10.57571724 10.57678143 11.20290659 11.36080183 11.54439414 13.68634853
 19.59579675 19.59833242 19.60108071 19.60185503 19.60844325 19.61082659
 19.61251778 23.43248794 23.43249093 23.53082165 23.53727559 23.609436
 27.80343638 27.8050667  27.80516776 27.81041803 27.81202721 27.8128419
 27.81811761 34.29075385 34.29727221 34.30713717 34.35386192 34.39270436
 36.60256015 36.66075546 36.67085772 43.35593899 43.537201   43.75039904
 46.90826158 73.83707642]
  24 ( 0.667  0.667 -0.000)   [-7.94544286e+01 -5.80495282e+01 -7.00456003e+00 -4.89921629e+00
 -4.89921629e+00 -4.89921256e+00 -4.46021697e+00 -2.77525154e+00
 -2.77524304e+00 -2.77524304e+00 -3.74111130e-01 -4.98207884e-02
  5.65552488e-02  5.65553506e-02] [ 0.47626045  0.52165223  0.76667189  0.7666719   0.82243205  0.86588603
  1.02147041  1.02147042  1.03166503  1.06262402  1.11730206  1.11730206
  1.14595093  1.24958018  1.42060202  1.49303195  1.51362161  1.51362161
  1.54123891  1.5694136   1.64345663  1.65134836  1.65134842  1.93509816
  1.94430021  1.9470581   1.94705811  1.9801362   2.03084075  2.03084078
  2.12482554  2.12482555  2.18422529  2.24566248  2.40944368  2.41269502
  2.41269508  2.59157636  2.65945062  2.69649046  2.78654692  2.78654696
  2.78824277  2.92463035  2.92463046  3.08663577  3.2275449   3.49227323
  3.49227325  3.52307466  3.73333009  3.78981471  4.02874082  4.02874084
  5.83119684  5.85368257  5.93955439  6.03694609  6.03694617  8.18420262
  8.2412073   8.27720389  8.27720395  8.39419933  9.01589726 10.54432089
 10.54432096 10.59047159 11.24693605 11.51988164 11.51988169 13.66195976
 19.59706983 19.59706987 19.59817732 19.60209751 19.60475081 19.60475081
 19.60998798 23.45471173 23.45493115 23.49787193 23.56135113 23.56135116
 27.80464268 27.80561776 27.80561781 27.8096674  27.80983361 27.80983362
 27.82067539 34.26512651 34.30329193 34.31557939 34.31557942 34.41598816
 36.65363629 36.65363633 36.67032771 43.42092579 43.71801882 43.71801886
 47.05509672 73.80742378]
  25 ( 0.667  0.667  0.333)   [-7.94544287e+01 -5.80495282e+01 -7.00456410e+00 -4.89921713e+00
 -4.89921678e+00 -4.89921315e+00 -4.46021750e+00 -2.77526574e+00
 -2.77525765e+00 -2.77524336e+00 -3.38459725e-01 -9.67332761e-02
 -2.28722535e-02  6.96125987e-02] [ 0.50455626  0.65822002  0.72324189  0.73775117  0.77789788  0.79241281
  1.03421507  1.04916045  1.11850252  1.12902778  1.16125051  1.18524623
  1.25345092  1.2964242   1.37644634  1.3949647   1.39730972  1.45238988
  1.54919783  1.56461217  1.62372325  1.67520382  1.68828382  1.76344373
  1.87942901  1.9240034   1.93578205  1.99148279  2.00276114  2.06234248
  2.11690723  2.2383269   2.29718005  2.33277945  2.40559422  2.52508228
  2.57299674  2.62003679  2.67643766  2.74464773  2.76299901  2.79714644
  2.85326727  2.90468031  2.93107018  3.01089743  3.15056296  3.44948412
  3.52220823  3.59469915  3.63597588  3.85313144  3.89544875  4.0931606
  5.79420017  5.7979642   5.98810706  5.99063363  6.1247961   8.23137929
  8.24093337  8.26074487  8.31520317  8.42122705  8.88740389 10.51137648
 10.57571724 10.57678143 11.20290659 11.36080183 11.54439414 13.68634853
 19.59579675 19.59833242 19.60108071 19.60185503 19.60844325 19.61082659
 19.61251778 23.43248794 23.43249093 23.53082165 23.53727559 23.609436
 27.80343638 27.8050667  27.80516776 27.81041803 27.81202721 27.8128419
 27.81811761 34.29075385 34.29727221 34.30713717 34.35386192 34.39270436
 36.60256015 36.66075546 36.67085772 43.35593899 43.537201   43.75039904
 46.90826158 73.83707642]
  26 ( 0.667  0.667  0.667)   [-7.94544285e+01 -5.80495280e+01 -7.00455604e+00 -4.89921485e+00
 -4.89921485e+00 -4.89921086e+00 -4.46021773e+00 -2.77525757e+00
 -2.77522363e+00 -2.77522363e+00 -3.94515474e-01 -6.64510434e-02
  1.10018437e-01  1.10018437e-01] [ 0.52823232  0.60664001  0.60664001  0.73093435  0.785275    0.785275
  0.82882272  1.05193745  1.08286189  1.08286189  1.16148257  1.16852682
  1.16852682  1.36374396  1.47470402  1.47470402  1.51224588  1.56461612
  1.56461612  1.67772372  1.67772372  1.70942754  1.71679463  1.79847746
  1.79847746  1.86918503  1.86918504  1.96162369  2.10157549  2.11588979
  2.11588979  2.23808122  2.26678798  2.266788    2.42148206  2.48594148
  2.49503557  2.49503559  2.62755731  2.71081253  2.71081254  2.78685173
  2.78685174  2.85334774  2.98297674  2.98347035  2.98347038  3.45408313
  3.45408314  3.54669968  3.80936174  3.90295582  3.90295583  4.01882951
  5.84371809  5.8437181   5.9592609   5.9592609   6.01342078  8.23883801
  8.23883801  8.3570083   8.41366392  8.41366392  8.86992618 10.56438085
 10.56766069 10.56766069 11.24518912 11.43710227 11.43710227 13.79090525
 19.59521059 19.59826132 19.59826132 19.60368288 19.60463611 19.60463611
 19.61270477 23.45542238 23.45542238 23.52011799 23.52011799 23.53885578
 27.80039747 27.80512036 27.80512036 27.80752699 27.80780495 27.80780495
 27.81931829 34.29362728 34.29362728 34.38196518 34.39170184 34.39170184
 36.63836541 36.68516544 36.68516544 43.38941728 43.61752061 43.61752061
 46.90571661 74.05425541]
<<<<<<< HEAD
<<<<<<< HEAD
<<<<<<< HEAD
<<<<<<< HEAD
=======
>>>>>>> cluster
=======
>>>>>>> b0ebe15b9cb21f72d3133d30b88ad83ae944b1df
=======
>>>>>>> cluster
    CPU time for get_k_kpts: make_kpt ki>=kj (0,*)      3.57 sec, wall time      0.13 sec
    CPU time for get_k_kpts: make_kpt ki>=kj (1,*)     11.93 sec, wall time      0.38 sec
    CPU time for get_k_kpts: make_kpt ki>=kj (2,*)     19.68 sec, wall time      0.62 sec
    CPU time for get_k_kpts: make_kpt ki>=kj (3,*)     24.36 sec, wall time      0.77 sec
    CPU time for get_k_kpts: make_kpt ki>=kj (4,*)     29.10 sec, wall time      0.92 sec
    CPU time for get_k_kpts: make_kpt ki>=kj (5,*)     37.02 sec, wall time      1.17 sec
    CPU time for get_k_kpts: make_kpt ki>=kj (6,*)     41.42 sec, wall time      1.30 sec
    CPU time for get_k_kpts: make_kpt ki>=kj (7,*)     48.89 sec, wall time      1.54 sec
    CPU time for get_k_kpts: make_kpt ki>=kj (8,*)     53.91 sec, wall time      1.69 sec
    CPU time for get_k_kpts: make_kpt ki>=kj (9,*)     59.68 sec, wall time      1.87 sec
    CPU time for get_k_kpts: make_kpt ki>=kj (10,*)     63.77 sec, wall time      2.00 sec
    CPU time for get_k_kpts: make_kpt ki>=kj (11,*)     71.58 sec, wall time      2.25 sec
    CPU time for get_k_kpts: make_kpt ki>=kj (12,*)     76.34 sec, wall time      2.40 sec
    CPU time for get_k_kpts: make_kpt ki>=kj (13,*)     78.44 sec, wall time      2.47 sec
    CPU time for get_k_kpts: make_kpt ki>=kj (14,*)     81.27 sec, wall time      2.56 sec
    CPU time for get_k_kpts: make_kpt ki>=kj (15,*)     90.55 sec, wall time      2.85 sec
    CPU time for get_k_kpts: make_kpt ki>=kj (16,*)     96.73 sec, wall time      3.05 sec
    CPU time for get_k_kpts: make_kpt ki>=kj (17,*)    101.63 sec, wall time      3.19 sec
    CPU time for get_k_kpts: make_kpt ki>=kj (18,*)    103.95 sec, wall time      3.26 sec
    CPU time for get_k_kpts: make_kpt ki>=kj (19,*)    112.72 sec, wall time      3.54 sec
    CPU time for get_k_kpts: make_kpt ki>=kj (20,*)    118.28 sec, wall time      3.72 sec
    CPU time for get_k_kpts: make_kpt ki>=kj (21,*)    121.82 sec, wall time      3.84 sec
    CPU time for get_k_kpts: make_kpt ki>=kj (22,*)    128.42 sec, wall time      4.03 sec
    CPU time for get_k_kpts: make_kpt ki>=kj (23,*)    133.42 sec, wall time      4.22 sec
    CPU time for get_k_kpts: make_kpt ki>=kj (24,*)    143.89 sec, wall time      4.58 sec
    CPU time for get_k_kpts: make_kpt ki>=kj (25,*)    142.27 sec, wall time      4.47 sec
    CPU time for get_k_kpts: make_kpt ki>=kj (26,*)    149.48 sec, wall time      4.71 sec
<<<<<<< HEAD
Monkhorst pack size [3 3 3] ew_eta 1.3749109234332217 ew_cut 5.114582727547651
Ewald components = 0, -0.775823048153945, 0.701640797011738
    CPU time for get_j pass 1     55.96 sec, wall time      2.06 sec
    CPU time for get_j pass 2      6.12 sec, wall time      1.83 sec
    CPU time for vj and vk   2209.65 sec, wall time     71.52 sec
Ewald components = 1.25967104982813e-135, -881.045459580493, 778.181077139905
E1 = (-615.2545278178712+1.7485912089600493e-15j)  E_coul = (135.3207240773189+1.3362059002658347e-15j)
Extra cycle  E= -582.79818618114  delta_E= -2.21e-10  |g|= 3.76e-05  |ddm|= 0.00108
    CPU time for scf_cycle  79847.19 sec, wall time   2832.81 sec
    CPU time for SCF  79847.23 sec, wall time   2832.85 sec
converged SCF energy = -582.79818618114
<<<<<<< HEAD
=======
    CPU time for get_k_kpts: make_kpt ki>=kj (0,*)      4.18 sec, wall time      0.15 sec
    CPU time for get_k_kpts: make_kpt ki>=kj (1,*)     13.80 sec, wall time      0.43 sec
    CPU time for get_k_kpts: make_kpt ki>=kj (2,*)     18.57 sec, wall time      0.59 sec
    CPU time for get_k_kpts: make_kpt ki>=kj (3,*)     26.88 sec, wall time      0.85 sec
    CPU time for get_k_kpts: make_kpt ki>=kj (4,*)     33.36 sec, wall time      1.05 sec
    CPU time for get_k_kpts: make_kpt ki>=kj (5,*)     38.60 sec, wall time      1.22 sec
    CPU time for get_k_kpts: make_kpt ki>=kj (6,*)     45.23 sec, wall time      1.42 sec
    CPU time for get_k_kpts: make_kpt ki>=kj (7,*)     50.57 sec, wall time      1.59 sec
    CPU time for get_k_kpts: make_kpt ki>=kj (8,*)     55.22 sec, wall time      1.73 sec
    CPU time for get_k_kpts: make_kpt ki>=kj (9,*)     66.11 sec, wall time      2.08 sec
    CPU time for get_k_kpts: make_kpt ki>=kj (10,*)     70.00 sec, wall time      2.20 sec
    CPU time for get_k_kpts: make_kpt ki>=kj (11,*)     77.60 sec, wall time      2.44 sec
    CPU time for get_k_kpts: make_kpt ki>=kj (12,*)     82.39 sec, wall time      2.59 sec
    CPU time for get_k_kpts: make_kpt ki>=kj (13,*)     85.66 sec, wall time      2.70 sec
    CPU time for get_k_kpts: make_kpt ki>=kj (14,*)     93.28 sec, wall time      2.93 sec
    CPU time for get_k_kpts: make_kpt ki>=kj (15,*)     86.83 sec, wall time      2.73 sec
    CPU time for get_k_kpts: make_kpt ki>=kj (16,*)     93.93 sec, wall time      2.95 sec
    CPU time for get_k_kpts: make_kpt ki>=kj (17,*)     99.41 sec, wall time      3.13 sec
    CPU time for get_k_kpts: make_kpt ki>=kj (18,*)    108.17 sec, wall time      3.39 sec
    CPU time for get_k_kpts: make_kpt ki>=kj (19,*)    111.79 sec, wall time      3.51 sec
    CPU time for get_k_kpts: make_kpt ki>=kj (20,*)    132.65 sec, wall time      4.16 sec
    CPU time for get_k_kpts: make_kpt ki>=kj (21,*)    150.40 sec, wall time      4.81 sec
    CPU time for get_k_kpts: make_kpt ki>=kj (22,*)    125.23 sec, wall time      3.93 sec
    CPU time for get_k_kpts: make_kpt ki>=kj (23,*)    141.44 sec, wall time      4.45 sec
    CPU time for get_k_kpts: make_kpt ki>=kj (24,*)    154.42 sec, wall time      4.86 sec
    CPU time for get_k_kpts: make_kpt ki>=kj (25,*)    160.73 sec, wall time      5.06 sec
    CPU time for get_k_kpts: make_kpt ki>=kj (26,*)    170.13 sec, wall time      5.34 sec
=======
>>>>>>> cluster
Monkhorst pack size [3 3 3] ew_eta 1.3749109234332217 ew_cut 5.114582727547651
Ewald components = 0, -0.775823048153945, 0.701640797011738
    CPU time for get_j pass 1     55.96 sec, wall time      2.06 sec
    CPU time for get_j pass 2      6.12 sec, wall time      1.83 sec
    CPU time for vj and vk   2209.65 sec, wall time     71.52 sec
Ewald components = 1.25967104982813e-135, -881.045459580493, 778.181077139905
<<<<<<< HEAD
E1 = (-615.2545278178702+1.7531832276537459e-15j)  E_coul = (135.3207240773189+1.3485729882111658e-15j)
Extra cycle  E= -582.798186181139  delta_E= -2.2e-10  |g|= 3.76e-05  |ddm|= 0.00108
    CPU time for scf_cycle  81422.76 sec, wall time   2911.53 sec
    CPU time for SCF  81422.83 sec, wall time   2911.57 sec
converged SCF energy = -582.798186181139
>>>>>>> f0983ef5bf9ad467b05de206ad1aa900b1c074f6
=======
E1 = (-615.2545278178712+1.7485912089600493e-15j)  E_coul = (135.3207240773189+1.3362059002658347e-15j)
Extra cycle  E= -582.79818618114  delta_E= -2.21e-10  |g|= 3.76e-05  |ddm|= 0.00108
    CPU time for scf_cycle  79847.19 sec, wall time   2832.81 sec
    CPU time for SCF  79847.23 sec, wall time   2832.85 sec
converged SCF energy = -582.79818618114
<<<<<<< HEAD
>>>>>>> cluster
=======
=======
    CPU time for get_k_kpts: make_kpt ki>=kj (0,*)      4.18 sec, wall time      0.15 sec
    CPU time for get_k_kpts: make_kpt ki>=kj (1,*)     13.80 sec, wall time      0.43 sec
    CPU time for get_k_kpts: make_kpt ki>=kj (2,*)     18.57 sec, wall time      0.59 sec
    CPU time for get_k_kpts: make_kpt ki>=kj (3,*)     26.88 sec, wall time      0.85 sec
    CPU time for get_k_kpts: make_kpt ki>=kj (4,*)     33.36 sec, wall time      1.05 sec
    CPU time for get_k_kpts: make_kpt ki>=kj (5,*)     38.60 sec, wall time      1.22 sec
    CPU time for get_k_kpts: make_kpt ki>=kj (6,*)     45.23 sec, wall time      1.42 sec
    CPU time for get_k_kpts: make_kpt ki>=kj (7,*)     50.57 sec, wall time      1.59 sec
    CPU time for get_k_kpts: make_kpt ki>=kj (8,*)     55.22 sec, wall time      1.73 sec
    CPU time for get_k_kpts: make_kpt ki>=kj (9,*)     66.11 sec, wall time      2.08 sec
    CPU time for get_k_kpts: make_kpt ki>=kj (10,*)     70.00 sec, wall time      2.20 sec
    CPU time for get_k_kpts: make_kpt ki>=kj (11,*)     77.60 sec, wall time      2.44 sec
    CPU time for get_k_kpts: make_kpt ki>=kj (12,*)     82.39 sec, wall time      2.59 sec
    CPU time for get_k_kpts: make_kpt ki>=kj (13,*)     85.66 sec, wall time      2.70 sec
    CPU time for get_k_kpts: make_kpt ki>=kj (14,*)     93.28 sec, wall time      2.93 sec
    CPU time for get_k_kpts: make_kpt ki>=kj (15,*)     86.83 sec, wall time      2.73 sec
    CPU time for get_k_kpts: make_kpt ki>=kj (16,*)     93.93 sec, wall time      2.95 sec
    CPU time for get_k_kpts: make_kpt ki>=kj (17,*)     99.41 sec, wall time      3.13 sec
    CPU time for get_k_kpts: make_kpt ki>=kj (18,*)    108.17 sec, wall time      3.39 sec
    CPU time for get_k_kpts: make_kpt ki>=kj (19,*)    111.79 sec, wall time      3.51 sec
    CPU time for get_k_kpts: make_kpt ki>=kj (20,*)    132.65 sec, wall time      4.16 sec
    CPU time for get_k_kpts: make_kpt ki>=kj (21,*)    150.40 sec, wall time      4.81 sec
    CPU time for get_k_kpts: make_kpt ki>=kj (22,*)    125.23 sec, wall time      3.93 sec
    CPU time for get_k_kpts: make_kpt ki>=kj (23,*)    141.44 sec, wall time      4.45 sec
    CPU time for get_k_kpts: make_kpt ki>=kj (24,*)    154.42 sec, wall time      4.86 sec
    CPU time for get_k_kpts: make_kpt ki>=kj (25,*)    160.73 sec, wall time      5.06 sec
    CPU time for get_k_kpts: make_kpt ki>=kj (26,*)    170.13 sec, wall time      5.34 sec
Monkhorst pack size [3 3 3] ew_eta 1.3749109234332217 ew_cut 5.114582727547651
Ewald components = 0, -0.775823048153945, 0.701640797011738
    CPU time for get_j pass 1     76.88 sec, wall time      2.51 sec
    CPU time for get_j pass 2      7.73 sec, wall time      1.49 sec
    CPU time for vj and vk   2386.61 sec, wall time     76.46 sec
Ewald components = 1.25967104982813e-135, -881.045459580493, 778.181077139905
E1 = (-615.2545278178702+1.7531832276537459e-15j)  E_coul = (135.3207240773189+1.3485729882111658e-15j)
Extra cycle  E= -582.798186181139  delta_E= -2.2e-10  |g|= 3.76e-05  |ddm|= 0.00108
    CPU time for scf_cycle  81422.76 sec, wall time   2911.53 sec
    CPU time for SCF  81422.83 sec, wall time   2911.57 sec
converged SCF energy = -582.798186181139
>>>>>>> f0983ef5bf9ad467b05de206ad1aa900b1c074f6
>>>>>>> b0ebe15b9cb21f72d3133d30b88ad83ae944b1df
=======
>>>>>>> cluster
