#INFO: **** input file is /burg/ccce/users/eav2136/projects/core_level_spectroscopy/01_peommp2_cbe/meanfield.py ****
#!/usr/bin/env python
import json
from pyscf.pbc import gto, scf
from pyscf.pbc.tools import lattice, pyscf_ase
from pyscf.pbc.scf import chkfile
from fileutils import load, dump
import sys

material = load("data/{}".format(sys.argv[1]))
# Create Cell
cell = gto.Cell()
ase_atom = lattice.get_ase_atom(material["formula"])
cell.atom = pyscf_ase.ase_atoms_to_pyscf(ase_atom)
cell.a = ase_atom.cell[:]
cell.unit = "B"
cell.basis = material["basis"]
cell.exp_to_discard = material["exp_to_discard"]
cell.verbose = 7
cell.build()

# Mean Field
kdensity = material["kdensity"]
kmesh = [kdensity, kdensity, kdensity]
kpts = cell.make_kpts(kmesh, scaled_center=material["vb_scaled_center"])
mymf = scf.KRHF(cell, kpts=kpts, exxdiv="ewald")
mymf.chkfile = "data/{}".format(material["chk"])
mymf = mymf.density_fit()
mymf.with_df._cderi_to_save = "data/{}".format(material["cderi"])
ekrhf = mymf.kernel()
convergence = mymf.converged
mymf_data = dict([("ekrhf", float(ekrhf)),
                  ("convergence", bool(convergence))])
dump(mymf_data, "data/{}".format(material["ekrhf"]))
#INFO: ******************** input file end ********************


System: uname_result(system='Linux', node='g110', release='4.18.0-193.el8.x86_64', version='#1 SMP Fri Mar 27 14:35:58 UTC 2020', machine='x86_64')  Threads 32
Python 3.10.12 (main, Jul 29 2023, 11:27:27) [GCC 13.2.0]
numpy 1.25.1  scipy 1.10.1
Date: Thu Jan 25 10:01:01 2024
PySCF version 2.0.1
PySCF path  /burg/berkelbach/users/eav2136/builds/pyscf/projected-cvs/pyscf
GIT ORIG_HEAD 0bfbc692adf3ea63b8a509210433219cd1c472a2
GIT HEAD (branch projected-cvs) e14caaa2dddc538b9be2d86f01e5b456fc92da36

[ENV] PYSCF_TMPDIR /burg/ccce/users/eav2136/projects/core_level_spectroscopy/01_peommp2_cbe/tmp
[ENV] PYSCF_MAX_MEMORY 700000
[CONFIG] DEBUG = False
[CONFIG] MAX_MEMORY = 700000
[CONFIG] TMPDIR = /burg/ccce/users/eav2136/projects/core_level_spectroscopy/01_peommp2_cbe/tmp
[CONFIG] UNIT = angstrom
[CONFIG] VERBOSE = 3
[CONFIG] conf_file = None
[INPUT] verbose = 7
[INPUT] max_memory = 700000 
[INPUT] num. atoms = 2
[INPUT] num. electrons = 12
[INPUT] charge = 0
[INPUT] spin (= nelec alpha-beta = 2S) = 0
[INPUT] symmetry False subgroup None
[INPUT] Mole.unit = B
[INPUT]  1 B      0.000000000000   0.000000000000   0.000000000000 AA    0.000000000000   0.000000000000   0.000000000000 Bohr
[INPUT]  2 N      0.903749935167   0.903749935167   0.903749935167 AA    1.707839862559   1.707839862559   1.707839862559 Bohr
[INPUT] ---------------- BASIS SET ---------------- 
[INPUT] l, kappa, [nprim/nctr], expnt,             c_1 c_2 ...
[INPUT] N
[INPUT] 0    0    [8    /2   ]  11420             0.000523 -0.000115
                                1712              0.004045 -0.000895
                                389.3             0.020775 -0.004624
                                110               0.080727 -0.018528
                                35.57             0.233074 -0.057339
                                12.54             0.433501 -0.132076
                                4.644             0.347472 -0.17251
                                0.5118            -0.008508 0.599944
[INPUT] 0    0    [1    /1   ]  1.293                1
[INPUT] 0    0    [1    /1   ]  0.1787               1
[INPUT] 1    0    [3    /1   ]  26.63             0.01467
                                5.948             0.091764
                                1.742             0.298683
[INPUT] 1    0    [1    /1   ]  0.555                1
[INPUT] 1    0    [1    /1   ]  0.1725               1
[INPUT] 2    0    [1    /1   ]  1.654                1
[INPUT] 2    0    [1    /1   ]  0.469                1
[INPUT] 3    0    [1    /1   ]  1.093                1
[INPUT] 0    0    [1    /1   ]  5.952                1
[INPUT] 0    0    [1    /1   ]  16.201               1
[INPUT] 1    0    [1    /1   ]  11.871               1
[INPUT] 1    0    [1    /1   ]  44.849               1
[INPUT] 2    0    [1    /1   ]  14.2                 1
[INPUT] B
[INPUT] 0    0    [8    /2   ]  5473              0.000555 -0.000112
                                820.9             0.004291 -0.000868
                                186.8             0.021949 -0.004484
                                52.83             0.084441 -0.017683
                                17.08             0.238557 -0.053639
                                5.999             0.435072 -0.119005
                                2.208             0.341955 -0.165824
                                0.2415            -0.009545 0.595981
[INPUT] 0    0    [1    /1   ]  0.5879               1
[INPUT] 0    0    [1    /1   ]  0.0861               1
[INPUT] 1    0    [3    /1   ]  12.05             0.013118
                                2.613             0.079896
                                0.7475            0.277275
[INPUT] 1    0    [1    /1   ]  0.2385               1
[INPUT] 1    0    [1    /1   ]  0.07698              1
[INPUT] 2    0    [1    /1   ]  0.661                1
[INPUT] 2    0    [1    /1   ]  0.199                1
[INPUT] 3    0    [1    /1   ]  0.49                 1
[INPUT] 0    0    [1    /1   ]  2.94                 1
[INPUT] 0    0    [1    /1   ]  8.311                1
[INPUT] 1    0    [1    /1   ]  6.016                1
[INPUT] 1    0    [1    /1   ]  22.891               1
[INPUT] 2    0    [1    /1   ]  13.015               1

Ewald components = 2.22177160975447e-132, -245.992357858762, 217.051170209755
nuclear repulsion = -28.9411876490068
number of shells = 28
number of NR pGTOs = 110
number of NR cGTOs = 86
basis = ccpcvtz
ecp = {}
bas 0, expnt(s) = [5.473e+03 8.209e+02 1.868e+02 5.283e+01 1.708e+01 5.999e+00 2.208e+00
 2.415e-01]
bas 1, expnt(s) = [0.5879]
bas 2, expnt(s) = [0.0861]
bas 3, expnt(s) = [12.05    2.613   0.7475]
bas 4, expnt(s) = [0.2385]
bas 5, expnt(s) = [0.07698]
bas 6, expnt(s) = [0.661]
bas 7, expnt(s) = [0.199]
bas 8, expnt(s) = [0.49]
bas 9, expnt(s) = [2.94]
bas 10, expnt(s) = [8.311]
bas 11, expnt(s) = [6.016]
bas 12, expnt(s) = [22.891]
bas 13, expnt(s) = [13.015]
bas 14, expnt(s) = [1.142e+04 1.712e+03 3.893e+02 1.100e+02 3.557e+01 1.254e+01 4.644e+00
 5.118e-01]
bas 15, expnt(s) = [1.293]
bas 16, expnt(s) = [0.1787]
bas 17, expnt(s) = [26.63   5.948  1.742]
bas 18, expnt(s) = [0.555]
bas 19, expnt(s) = [0.1725]
bas 20, expnt(s) = [1.654]
bas 21, expnt(s) = [0.469]
bas 22, expnt(s) = [1.093]
bas 23, expnt(s) = [5.952]
bas 24, expnt(s) = [16.201]
bas 25, expnt(s) = [11.871]
bas 26, expnt(s) = [44.849]
bas 27, expnt(s) = [14.2]
CPU time:         1.42
lattice vectors  a1 [0.000000000, 3.415679725, 3.415679725]
                 a2 [3.415679725, 0.000000000, 3.415679725]
                 a3 [3.415679725, 3.415679725, 0.000000000]
dimension = 3
low_dim_ft_type = None
Cell volume = 79.7006
rcut = 27.881052611759404 (nimgs = [8 8 8])
lattice sum = 2251 cells
precision = 1e-08
pseudo = None
ke_cutoff = 149320.2665776781
    = [687 687 687] mesh (324242703 PWs)


******** <class 'pyscf.pbc.scf.khf.KRHF'> ********
method = KRHF-KSCF-RHF-SCF-RHF
initial guess = minao
damping factor = 0
level_shift factor = 0
DIIS = <class 'pyscf.scf.diis.CDIIS'>
diis_start_cycle = 1
diis_space = 8
SCF conv_tol = 1e-07
SCF conv_tol_grad = None
SCF max_cycles = 50
direct_scf = True
direct_scf_tol = 1e-13
chkfile to save SCF result = data/bn_ccpcvtz_k3_N_1s_nvir_act30.chk
max_memory 700000 MB (current use 86 MB)


******** PBC SCF flags ********
N kpts = 27
kpts = [[ 0.00000000e+00  0.00000000e+00  0.00000000e+00]
 [ 3.06585405e-01  3.06585405e-01 -3.06585405e-01]
 [ 6.13170810e-01  6.13170810e-01 -6.13170810e-01]
 [ 3.06585405e-01 -3.06585405e-01  3.06585405e-01]
 [ 6.13170810e-01  1.99885254e-17 -1.99885254e-17]
 [ 9.19756214e-01  3.06585405e-01 -3.06585405e-01]
 [ 6.13170810e-01 -6.13170810e-01  6.13170810e-01]
 [ 9.19756214e-01 -3.06585405e-01  3.06585405e-01]
 [ 1.22634162e+00  3.99770508e-17 -3.99770508e-17]
 [-3.06585405e-01  3.06585405e-01  3.06585405e-01]
 [ 1.99885254e-17  6.13170810e-01 -1.99885254e-17]
 [ 3.06585405e-01  9.19756214e-01 -3.06585405e-01]
 [ 1.99885254e-17 -1.99885254e-17  6.13170810e-01]
 [ 3.06585405e-01  3.06585405e-01  3.06585405e-01]
 [ 6.13170810e-01  6.13170810e-01 -3.99770508e-17]
 [ 3.06585405e-01 -3.06585405e-01  9.19756214e-01]
 [ 6.13170810e-01 -3.55226258e-17  6.13170810e-01]
 [ 9.19756214e-01  3.06585405e-01  3.06585405e-01]
 [-6.13170810e-01  6.13170810e-01  6.13170810e-01]
 [-3.06585405e-01  9.19756214e-01  3.06585405e-01]
 [ 3.99770508e-17  1.22634162e+00 -3.99770508e-17]
 [-3.06585405e-01  3.06585405e-01  9.19756214e-01]
 [ 1.99885254e-17  6.13170810e-01  6.13170810e-01]
 [ 3.06585405e-01  9.19756214e-01  3.06585405e-01]
 [ 3.99770508e-17 -3.99770508e-17  1.22634162e+00]
 [ 3.06585405e-01  3.06585405e-01  9.19756214e-01]
 [ 6.13170810e-01  6.13170810e-01  6.13170810e-01]]
Exchange divergence treatment (exxdiv) = ewald
Monkhorst pack size [3 3 3] ew_eta 2.0415012507608057 ew_cut 3.446555143149695
Ewald components = 0, -1.15196888453017, 1.04011066863786
    madelung (= occupied orbital energy shift) = 0.22371643178460632
    Total energy shift due to Ewald probe charge = -1/2 * Nelec*madelung = -1.34229859071
DF object = <pyscf.pbc.df.df.GDF object at 0x155553f3ffd0>
Set gradient conv threshold to 0.000316228
Big error detected in the electron number of initial guess density matrix (Ne/cell = 11.9983)!
  This can cause huge error in Fock matrix and lead to instability in SCF for low-dimensional systems.
  DM is normalized wrt the number of electrons 12.0
    CPU time for vnuc pass1: analytic int   1482.84 sec, wall time     48.27 sec
    CPU time for contracting Vnuc [0:216]     27.67 sec, wall time      0.88 sec
    CPU time for contracting Vnuc     27.67 sec, wall time      0.88 sec
    CPU time for get_nuc   1510.61 sec, wall time     49.16 sec


******** <class 'pyscf.pbc.df.df.GDF'> ********
mesh = [7, 7, 7] (343 PWs)
auxbasis = None
eta = 0.2
exp_to_discard = None
_cderi_to_save = data/bn_ccpcvtz_k3_N_1s_nvir_act30_cderi.h5
len(kpts) = 27
    kpts = [[ 0.00000000e+00  0.00000000e+00  0.00000000e+00]
 [ 3.06585405e-01  3.06585405e-01 -3.06585405e-01]
 [ 6.13170810e-01  6.13170810e-01 -6.13170810e-01]
 [ 3.06585405e-01 -3.06585405e-01  3.06585405e-01]
 [ 6.13170810e-01  1.99885254e-17 -1.99885254e-17]
 [ 9.19756214e-01  3.06585405e-01 -3.06585405e-01]
 [ 6.13170810e-01 -6.13170810e-01  6.13170810e-01]
 [ 9.19756214e-01 -3.06585405e-01  3.06585405e-01]
 [ 1.22634162e+00  3.99770508e-17 -3.99770508e-17]
 [-3.06585405e-01  3.06585405e-01  3.06585405e-01]
 [ 1.99885254e-17  6.13170810e-01 -1.99885254e-17]
 [ 3.06585405e-01  9.19756214e-01 -3.06585405e-01]
 [ 1.99885254e-17 -1.99885254e-17  6.13170810e-01]
 [ 3.06585405e-01  3.06585405e-01  3.06585405e-01]
 [ 6.13170810e-01  6.13170810e-01 -3.99770508e-17]
 [ 3.06585405e-01 -3.06585405e-01  9.19756214e-01]
 [ 6.13170810e-01 -3.55226258e-17  6.13170810e-01]
 [ 9.19756214e-01  3.06585405e-01  3.06585405e-01]
 [-6.13170810e-01  6.13170810e-01  6.13170810e-01]
 [-3.06585405e-01  9.19756214e-01  3.06585405e-01]
 [ 3.99770508e-17  1.22634162e+00 -3.99770508e-17]
 [-3.06585405e-01  3.06585405e-01  9.19756214e-01]
 [ 1.99885254e-17  6.13170810e-01  6.13170810e-01]
 [ 3.06585405e-01  9.19756214e-01  3.06585405e-01]
 [ 3.99770508e-17 -3.99770508e-17  1.22634162e+00]
 [ 3.06585405e-01  3.06585405e-01  9.19756214e-01]
 [ 6.13170810e-01  6.13170810e-01  6.13170810e-01]]
Even tempered Gaussians are generated as DF auxbasis for  N B
  ETB auxbasis for N  [[0, [2927.8208, 1]], [0, [1463.9104, 1]], [0, [731.9552, 1]], [0, [365.9776, 1]], [0, [182.9888, 1]], [0, [91.4944, 1]], [0, [45.7472, 1]], [0, [22.8736, 1]], [0, [11.4368, 1]], [0, [5.7184, 1]], [0, [2.8592, 1]], [0, [1.4296, 1]], [0, [0.7148, 1]], [0, [0.3574, 1]], [1, [359.572755541907, 1]], [1, [179.7863777709535, 1]], [1, [89.89318888547675, 1]], [1, [44.94659444273837, 1]], [1, [22.473297221369187, 1]], [1, [11.236648610684593, 1]], [1, [5.618324305342297, 1]], [1, [2.8091621526711483, 1]], [1, [1.4045810763355742, 1]], [1, [0.7022905381677871, 1]], [1, [0.35114526908389354, 1]], [2, [176.64, 1]], [2, [88.32, 1]], [2, [44.16, 1]], [2, [22.08, 1]], [2, [11.04, 1]], [2, [5.52, 1]], [2, [2.76, 1]], [2, [1.38, 1]], [2, [0.69, 1]], [2, [0.345, 1]], [3, [36.40750691821674, 1]], [3, [18.20375345910837, 1]], [3, [9.101876729554185, 1]], [3, [4.5509383647770925, 1]], [3, [2.2754691823885462, 1]], [3, [1.1377345911942731, 1]], [3, [0.5688672955971366, 1]], [4, [15.008, 1]], [4, [7.504, 1]], [4, [3.752, 1]], [4, [1.876, 1]], [4, [0.938, 1]]]
  ETB auxbasis for B  [[0, [1410.6624, 1]], [0, [705.3312, 1]], [0, [352.6656, 1]], [0, [176.3328, 1]], [0, [88.1664, 1]], [0, [44.0832, 1]], [0, [22.0416, 1]], [0, [11.0208, 1]], [0, [5.5104, 1]], [0, [2.7552, 1]], [0, [1.3776, 1]], [0, [0.6888, 1]], [0, [0.3444, 1]], [0, [0.1722, 1]], [1, [166.73258420990183, 1]], [1, [83.36629210495092, 1]], [1, [41.68314605247546, 1]], [1, [20.84157302623773, 1]], [1, [10.420786513118864, 1]], [1, [5.210393256559432, 1]], [1, [2.605196628279716, 1]], [1, [1.302598314139858, 1]], [1, [0.651299157069929, 1]], [1, [0.3256495785349645, 1]], [1, [0.16282478926748226, 1]], [2, [157.65504, 1]], [2, [78.82752, 1]], [2, [39.41376, 1]], [2, [19.70688, 1]], [2, [9.85344, 1]], [2, [4.92672, 1]], [2, [2.46336, 1]], [2, [1.23168, 1]], [2, [0.61584, 1]], [2, [0.30792, 1]], [2, [0.15396, 1]], [3, [31.685127342650844, 1]], [3, [15.842563671325422, 1]], [3, [7.921281835662711, 1]], [3, [3.9606409178313555, 1]], [3, [1.9803204589156778, 1]], [3, [0.9901602294578389, 1]], [3, [0.49508011472891944, 1]], [3, [0.24754005736445972, 1]], [4, [25.472, 1]], [4, [12.736, 1]], [4, [6.368, 1]], [4, [3.184, 1]], [4, [1.592, 1]], [4, [0.796, 1]], [4, [0.398, 1]]]
num shells = 98, num cGTOs = 412
Drop 0 primitive fitting functions
make aux basis, num shells = 98, num cGTOs = 412
auxcell.rcut 15.012237045426083
make compensating basis, num shells = 10, num cGTOs = 50
chgcell.rcut 11.482117703874595
    CPU time for 3c2e  73782.22 sec, wall time   2556.91 sec
Num uniq kpts 63
uniq_kpts [[ 0.00000000e+00  0.00000000e+00  0.00000000e+00]
 [-3.06585405e-01 -3.06585405e-01  3.06585405e-01]
 [-6.13170810e-01 -6.13170810e-01  6.13170810e-01]
 [-3.06585405e-01  3.06585405e-01 -3.06585405e-01]
 [ 0.00000000e+00  6.13170810e-01 -6.13170810e-01]
 [ 3.06585405e-01  9.19756214e-01 -9.19756214e-01]
 [-6.13170810e-01 -1.99885254e-17  1.99885254e-17]
 [-9.19756214e-01 -3.06585405e-01  3.06585405e-01]
 [-6.13170810e-01  6.13170810e-01 -6.13170810e-01]
 [-3.06585405e-01  9.19756214e-01 -9.19756214e-01]
 [ 0.00000000e+00  1.22634162e+00 -1.22634162e+00]
 [-9.19756214e-01  3.06585405e-01 -3.06585405e-01]
 [-1.22634162e+00 -3.99770508e-17  3.99770508e-17]
 [ 3.06585405e-01 -3.06585405e-01 -3.06585405e-01]
 [ 6.13170810e-01  0.00000000e+00 -6.13170810e-01]
 [ 9.19756214e-01  3.06585405e-01 -9.19756214e-01]
 [ 6.13170810e-01 -6.13170810e-01  0.00000000e+00]
 [ 9.19756214e-01 -3.06585405e-01 -3.06585405e-01]
 [ 1.22634162e+00  5.55111512e-17 -6.13170810e-01]
 [ 9.19756214e-01 -9.19756214e-01  3.06585405e-01]
 [ 1.22634162e+00 -6.13170810e-01  0.00000000e+00]
 [ 1.53292702e+00 -3.06585405e-01 -3.06585405e-01]
 [-1.99885254e-17 -6.13170810e-01  1.99885254e-17]
 [ 3.06585405e-01 -9.19756214e-01  3.06585405e-01]
 [ 6.13170810e-01 -1.22634162e+00  6.13170810e-01]
 [-3.06585405e-01 -9.19756214e-01  3.06585405e-01]
 [-5.55111512e-17 -1.22634162e+00  6.13170810e-01]
 [ 3.06585405e-01 -1.53292702e+00  9.19756214e-01]
 [-1.99885254e-17  1.99885254e-17 -6.13170810e-01]
 [ 3.06585405e-01  3.06585405e-01 -9.19756214e-01]
 [ 6.13170810e-01  6.13170810e-01 -1.22634162e+00]
 [-3.06585405e-01 -3.06585405e-01 -3.06585405e-01]
 [-6.13170810e-01 -6.13170810e-01  3.99770508e-17]
 [-3.06585405e-01  3.06585405e-01 -9.19756214e-01]
 [-5.55111512e-17  6.13170810e-01 -1.22634162e+00]
 [ 3.06585405e-01  9.19756214e-01 -1.53292702e+00]
 [-6.13170810e-01  3.55226258e-17 -6.13170810e-01]
 [-9.19756214e-01 -3.06585405e-01 -3.06585405e-01]
 [ 6.13170810e-01 -6.13170810e-01 -6.13170810e-01]
 [ 9.19756214e-01 -3.06585405e-01 -9.19756214e-01]
 [ 1.22634162e+00  0.00000000e+00 -1.22634162e+00]
 [ 9.19756214e-01 -9.19756214e-01 -3.06585405e-01]
 [ 1.22634162e+00 -6.13170810e-01 -6.13170810e-01]
 [ 1.53292702e+00 -3.06585405e-01 -9.19756214e-01]
 [ 1.22634162e+00 -1.22634162e+00  0.00000000e+00]
 [ 1.53292702e+00 -9.19756214e-01 -3.06585405e-01]
 [ 1.83951243e+00 -6.13170810e-01 -6.13170810e-01]
 [ 3.06585405e-01 -9.19756214e-01 -3.06585405e-01]
 [ 6.13170810e-01 -1.22634162e+00  0.00000000e+00]
 [ 9.19756214e-01 -1.53292702e+00  3.06585405e-01]
 [-3.99770508e-17 -1.22634162e+00  3.99770508e-17]
 [ 3.06585405e-01 -1.53292702e+00  3.06585405e-01]
 [ 6.13170810e-01 -1.83951243e+00  6.13170810e-01]
 [ 3.06585405e-01 -3.06585405e-01 -9.19756214e-01]
 [ 6.13170810e-01  0.00000000e+00 -1.22634162e+00]
 [ 9.19756214e-01  3.06585405e-01 -1.53292702e+00]
 [-1.99885254e-17 -6.13170810e-01 -6.13170810e-01]
 [-3.06585405e-01 -9.19756214e-01 -3.06585405e-01]
 [-3.99770508e-17  3.99770508e-17 -1.22634162e+00]
 [ 3.06585405e-01  3.06585405e-01 -1.53292702e+00]
 [ 6.13170810e-01  6.13170810e-01 -1.83951243e+00]
 [-3.06585405e-01 -3.06585405e-01 -9.19756214e-01]
 [-6.13170810e-01 -6.13170810e-01 -6.13170810e-01]]
max_memory 699477.129216 (MB)  blocksize 37850494
Cholesky decomposition for j2c at kpt 0
Symmetry pattern (k - [0. 0. 0.])*a= 2n pi
    make_kpt for uniq_kptji_ids [0]
kpt = [0. 0. 0.]
adapted_ji_idx = [  0   2   5   9  14  20  27  35  44  54  65  77  90 104 119 135 152 170
 189 209 230 252 275 299 324 350 377]
memory = 327.528448
int3c2e [1/1], AO [0:28], ncol = 3741
Symmetry pattern (k + [0. 0. 0.])*a= 2n pi
    make_kpt for [0]
Cholesky decomposition for j2c at kpt 1
Symmetry pattern (k - [-0.3065854 -0.3065854  0.3065854])*a= 2n pi
    make_kpt for uniq_kptji_ids [1]
kpt = [-0.3065854 -0.3065854  0.3065854]
adapted_ji_idx = [  1   4  13  19  34  43  64  76 103 118 151 169 208 229 274 298 349 376]
memory = 994.357248
int3c2e [1/1], AO [0:28], ncol = 7396
Symmetry pattern (k + [-0.3065854 -0.3065854  0.3065854])*a= 2n pi
    make_kpt for [2]
kpt = [-0.61317081 -0.61317081  0.61317081]
adapted_ji_idx = [  3  18  42  75 117 168 228 297 375]
memory = 1238.089728
int3c2e [1/1], AO [0:28], ncol = 7396
Cholesky decomposition for j2c at kpt 3
Symmetry pattern (k - [-0.3065854  0.3065854 -0.3065854])*a= 2n pi
    make_kpt for uniq_kptji_ids [3]
kpt = [-0.3065854  0.3065854 -0.3065854]
adapted_ji_idx = [  6  11  17  24  32  41  87 101 116 132 149 167 249 272 296 321 347 374]
memory = 1310.613504
int3c2e [1/1], AO [0:28], ncol = 7396
Symmetry pattern (k + [-0.3065854  0.3065854 -0.3065854])*a= 2n pi
    make_kpt for [8]
kpt = [-0.61317081  0.61317081 -0.61317081]
adapted_ji_idx = [ 21  29  38 129 146 164 318 344 371]
memory = 1449.20576
int3c2e [1/1], AO [0:28], ncol = 7396
Cholesky decomposition for j2c at kpt 4
Symmetry pattern (k - [ 0.          0.61317081 -0.61317081])*a= 2n pi
    make_kpt for uniq_kptji_ids [4 7]
kpt = [ 0.          0.61317081 -0.61317081]
adapted_ji_idx = [  7  12  25  33  88 102 133 150 250 273 322 348]
memory = 1459.273728
int3c2e [1/1], AO [0:28], ncol = 7396
kpt = [-0.91975621 -0.3065854   0.3065854 ]
adapted_ji_idx = [ 15  39 114 165 294 372]
memory = 1465.249792
int3c2e [1/1], AO [0:28], ncol = 7396
Symmetry pattern (k + [ 0.          0.61317081 -0.61317081])*a= 2n pi
    make_kpt for [10 11]
kpt = [ 0.          1.22634162 -1.22634162]
adapted_ji_idx = [ 23 131 320]
memory = 1474.08896
int3c2e [1/1], AO [0:28], ncol = 7396
kpt = [-0.91975621  0.3065854  -0.3065854 ]
adapted_ji_idx = [ 28  37 145 163 343 370]
memory = 1487.474688
int3c2e [1/1], AO [0:28], ncol = 7396
Cholesky decomposition for j2c at kpt 5
Symmetry pattern (k - [ 0.3065854   0.91975621 -0.91975621])*a= 2n pi
    make_kpt for uniq_kptji_ids [5 6]
kpt = [ 0.3065854   0.91975621 -0.91975621]
adapted_ji_idx = [  8  26  89 134 251 323]
memory = 1494.695936
int3c2e [1/1], AO [0:28], ncol = 7396
kpt = [-6.13170810e-01 -1.99885254e-17  1.99885254e-17]
adapted_ji_idx = [ 10  16  31  40 100 115 148 166 271 295 346 373]
memory = 1494.40512
int3c2e [1/1], AO [0:28], ncol = 7396
Symmetry pattern (k + [ 0.3065854   0.91975621 -0.91975621])*a= 2n pi
    make_kpt for [ 9 12]
kpt = [-0.3065854   0.91975621 -0.91975621]
adapted_ji_idx = [ 22  30 130 147 319 345]
memory = 1494.605824
int3c2e [1/1], AO [0:28], ncol = 7396
kpt = [-1.22634162e+00 -3.99770508e-17  3.99770508e-17]
adapted_ji_idx = [ 36 162 369]
memory = 1489.543168
int3c2e [1/1], AO [0:28], ncol = 7396
Cholesky decomposition for j2c at kpt 13
Symmetry pattern (k - [ 0.3065854 -0.3065854 -0.3065854])*a= 2n pi
    make_kpt for uniq_kptji_ids [13]
kpt = [ 0.3065854 -0.3065854 -0.3065854]
adapted_ji_idx = [ 45  56  68  81  95 110 126 143 161 180 200 221 243 266 290 315 341 368]
memory = 1496.981504
int3c2e [1/1], AO [0:28], ncol = 7396
Symmetry pattern (k + [ 0.3065854 -0.3065854 -0.3065854])*a= 2n pi
    make_kpt for [38]
kpt = [ 0.61317081 -0.61317081 -0.61317081]
adapted_ji_idx = [171 191 212 234 257 281 306 332 359]
memory = 1553.924096
int3c2e [1/1], AO [0:28], ncol = 7396
Cholesky decomposition for j2c at kpt 14
Symmetry pattern (k - [ 0.61317081  0.         -0.61317081])*a= 2n pi
    make_kpt for uniq_kptji_ids [14 25]
kpt = [ 0.61317081  0.         -0.61317081]
adapted_ji_idx = [ 46  57  82  96 127 144 181 201 244 267 316 342]
memory = 1554.432
int3c2e [1/1], AO [0:28], ncol = 7396
kpt = [-0.3065854  -0.91975621  0.3065854 ]
adapted_ji_idx = [ 66 108 159 219 288 366]
memory = 1556.189184
int3c2e [1/1], AO [0:28], ncol = 7396
Symmetry pattern (k + [ 0.61317081  0.         -0.61317081])*a= 2n pi
    make_kpt for [40 47]
kpt = [ 1.22634162  0.         -1.22634162]
adapted_ji_idx = [173 236 308]
memory = 1555.918848
int3c2e [1/1], AO [0:28], ncol = 7396
kpt = [ 0.3065854  -0.91975621 -0.3065854 ]
adapted_ji_idx = [190 211 256 280 331 358]
memory = 1550.635008
int3c2e [1/1], AO [0:28], ncol = 7396
Cholesky decomposition for j2c at kpt 15
Symmetry pattern (k - [ 0.91975621  0.3065854  -0.91975621])*a= 2n pi
    make_kpt for uniq_kptji_ids [15 22]
kpt = [ 0.91975621  0.3065854  -0.91975621]
adapted_ji_idx = [ 47  83 128 182 245 317]
memory = 1555.677184
int3c2e [1/1], AO [0:28], ncol = 7396
kpt = [-1.99885254e-17 -6.13170810e-01  1.99885254e-17]
adapted_ji_idx = [ 55  67  94 109 142 160 199 220 265 289 340 367]
memory = 1556.606976
int3c2e [1/1], AO [0:28], ncol = 7396
Symmetry pattern (k + [ 0.91975621  0.3065854  -0.91975621])*a= 2n pi
    make_kpt for [39 50]
kpt = [ 0.91975621 -0.3065854  -0.91975621]
adapted_ji_idx = [172 192 235 258 307 333]
memory = 1556.013056
int3c2e [1/1], AO [0:28], ncol = 7396
kpt = [-3.99770508e-17 -1.22634162e+00  3.99770508e-17]
adapted_ji_idx = [210 279 357]
memory = 1550.47936
int3c2e [1/1], AO [0:28], ncol = 7396
Cholesky decomposition for j2c at kpt 16
Symmetry pattern (k - [ 0.61317081 -0.61317081  0.        ])*a= 2n pi
    make_kpt for uniq_kptji_ids [16 33]
kpt = [ 0.61317081 -0.61317081  0.        ]
adapted_ji_idx = [ 48  59  71  84  98 113 183 203 224 246 269 293]
memory = 1555.84512
int3c2e [1/1], AO [0:28], ncol = 7396
kpt = [-0.3065854   0.3065854  -0.91975621]
adapted_ji_idx = [120 137 155 309 335 362]
memory = 1555.623936
int3c2e [1/1], AO [0:28], ncol = 7396
Symmetry pattern (k + [ 0.61317081 -0.61317081  0.        ])*a= 2n pi
    make_kpt for [44 53]
kpt = [ 1.22634162 -1.22634162  0.        ]
adapted_ji_idx = [177 197 218]
memory = 1556.353024
int3c2e [1/1], AO [0:28], ncol = 7396
kpt = [ 0.3065854  -0.3065854  -0.91975621]
adapted_ji_idx = [231 254 278 303 329 356]
memory = 1551.187968
int3c2e [1/1], AO [0:28], ncol = 7396
Cholesky decomposition for j2c at kpt 17
Symmetry pattern (k - [ 0.91975621 -0.3065854  -0.3065854 ])*a= 2n pi
    make_kpt for uniq_kptji_ids [17 26 34 37]
kpt = [ 0.91975621 -0.3065854  -0.3065854 ]
adapted_ji_idx = [ 49  60  85  99 184 204 247 270]
memory = 1556.447232
int3c2e [1/1], AO [0:28], ncol = 7396
kpt = [-5.55111512e-17 -1.22634162e+00  6.13170810e-01]
adapted_ji_idx = [ 69 111 222 291]
memory = 1555.12832
int3c2e [1/1], AO [0:28], ncol = 7396
kpt = [-5.55111512e-17  6.13170810e-01 -1.22634162e+00]
adapted_ji_idx = [121 138 310 336]
memory = 1555.234816
int3c2e [1/1], AO [0:28], ncol = 7396
kpt = [-0.91975621 -0.3065854  -0.3065854 ]
adapted_ji_idx = [153 360]
memory = 1555.857408
int3c2e [1/1], AO [0:28], ncol = 7396
Symmetry pattern (k + [ 0.91975621 -0.3065854  -0.3065854 ])*a= 2n pi
    make_kpt for [46 49 55 56]
kpt = [ 1.83951243 -0.61317081 -0.61317081]
adapted_ji_idx = [179]
memory = 1554.763776
int3c2e [1/1], AO [0:28], ncol = 7396
kpt = [ 0.91975621 -1.53292702  0.3065854 ]
adapted_ji_idx = [196 217]
memory = 1548.832768
int3c2e [1/1], AO [0:28], ncol = 7396
kpt = [ 0.91975621  0.3065854  -1.53292702]
adapted_ji_idx = [233 305]
memory = 1548.357632
int3c2e [1/1], AO [0:28], ncol = 7396
kpt = [-1.99885254e-17 -6.13170810e-01 -6.13170810e-01]
adapted_ji_idx = [253 277 328 355]
memory = 1548.648448
int3c2e [1/1], AO [0:28], ncol = 7396
Cholesky decomposition for j2c at kpt 18
Symmetry pattern (k - [ 1.22634162e+00  5.55111512e-17 -6.13170810e-01])*a= 2n pi
    make_kpt for uniq_kptji_ids [18 23 35 36]
kpt = [ 1.22634162e+00  5.55111512e-17 -6.13170810e-01]
adapted_ji_idx = [ 50  86 185 248]
memory = 1553.73568
int3c2e [1/1], AO [0:28], ncol = 7396
kpt = [ 0.3065854  -0.91975621  0.3065854 ]
adapted_ji_idx = [ 58  70  97 112 202 223 268 292]
memory = 1554.1248
int3c2e [1/1], AO [0:28], ncol = 7396
kpt = [ 0.3065854   0.91975621 -1.53292702]
adapted_ji_idx = [122 311]
memory = 1553.760256
int3c2e [1/1], AO [0:28], ncol = 7396
kpt = [-6.13170810e-01  3.55226258e-17 -6.13170810e-01]
adapted_ji_idx = [136 154 334 361]
memory = 1553.75616
int3c2e [1/1], AO [0:28], ncol = 7396
Symmetry pattern (k + [ 1.22634162e+00  5.55111512e-17 -6.13170810e-01])*a= 2n pi
    make_kpt for [45 52 54 57]
kpt = [ 1.53292702 -0.91975621 -0.3065854 ]
adapted_ji_idx = [178 198]
memory = 1553.928192
int3c2e [1/1], AO [0:28], ncol = 7396
kpt = [ 0.61317081 -1.83951243  0.61317081]
adapted_ji_idx = [216]
memory = 1548.259328
int3c2e [1/1], AO [0:28], ncol = 7396
kpt = [ 0.61317081  0.         -1.22634162]
adapted_ji_idx = [232 255 304 330]
memory = 1548.173312
int3c2e [1/1], AO [0:28], ncol = 7396
kpt = [-0.3065854  -0.91975621 -0.3065854 ]
adapted_ji_idx = [276 354]
memory = 1548.41088
int3c2e [1/1], AO [0:28], ncol = 7396
Cholesky decomposition for j2c at kpt 19
Symmetry pattern (k - [ 0.91975621 -0.91975621  0.3065854 ])*a= 2n pi
    make_kpt for uniq_kptji_ids [19 28]
kpt = [ 0.91975621 -0.91975621  0.3065854 ]
adapted_ji_idx = [ 51  62  74 186 206 227]
memory = 1553.698816
int3c2e [1/1], AO [0:28], ncol = 7396
kpt = [-1.99885254e-17  1.99885254e-17 -6.13170810e-01]
adapted_ji_idx = [ 78  92 107 123 140 158 240 263 287 312 338 365]
memory = 1555.61984
int3c2e [1/1], AO [0:28], ncol = 7396
Symmetry pattern (k + [ 0.91975621 -0.91975621  0.3065854 ])*a= 2n pi
    make_kpt for [41 58]
kpt = [ 0.91975621 -0.91975621 -0.3065854 ]
adapted_ji_idx = [174 194 215 237 260 284]
memory = 1555.64032
int3c2e [1/1], AO [0:28], ncol = 7396
kpt = [-3.99770508e-17  3.99770508e-17 -1.22634162e+00]
adapted_ji_idx = [300 326 353]
memory = 1550.544896
int3c2e [1/1], AO [0:28], ncol = 7396
Cholesky decomposition for j2c at kpt 20
Symmetry pattern (k - [ 1.22634162 -0.61317081  0.        ])*a= 2n pi
    make_kpt for uniq_kptji_ids [20 27 29 32]
kpt = [ 1.22634162 -0.61317081  0.        ]
adapted_ji_idx = [ 52  63 187 207]
memory = 1555.849216
int3c2e [1/1], AO [0:28], ncol = 7396
kpt = [ 0.3065854  -1.53292702  0.91975621]
adapted_ji_idx = [ 72 225]
memory = 1555.447808
int3c2e [1/1], AO [0:28], ncol = 7396
kpt = [ 0.3065854   0.3065854  -0.91975621]
adapted_ji_idx = [ 79  93 124 141 241 264 313 339]
memory = 1554.788352
int3c2e [1/1], AO [0:28], ncol = 7396
kpt = [-6.13170810e-01 -6.13170810e-01  3.99770508e-17]
adapted_ji_idx = [105 156 285 363]
memory = 1554.092032
int3c2e [1/1], AO [0:28], ncol = 7396
Symmetry pattern (k + [ 1.22634162 -0.61317081  0.        ])*a= 2n pi
    make_kpt for [43 48 60 61]
kpt = [ 1.53292702 -0.3065854  -0.91975621]
adapted_ji_idx = [176 239]
memory = 1554.468864
int3c2e [1/1], AO [0:28], ncol = 7396
kpt = [ 0.61317081 -1.22634162  0.        ]
adapted_ji_idx = [193 214 259 283]
memory = 1548.763136
int3c2e [1/1], AO [0:28], ncol = 7396
kpt = [ 0.61317081  0.61317081 -1.83951243]
adapted_ji_idx = [302]
memory = 1549.04576
int3c2e [1/1], AO [0:28], ncol = 7396
kpt = [-0.3065854  -0.3065854  -0.91975621]
adapted_ji_idx = [325 352]
memory = 1548.746752
int3c2e [1/1], AO [0:28], ncol = 7396
Cholesky decomposition for j2c at kpt 21
Symmetry pattern (k - [ 1.53292702 -0.3065854  -0.3065854 ])*a= 2n pi
    make_kpt for uniq_kptji_ids [21 24 30 31]
kpt = [ 1.53292702 -0.3065854  -0.3065854 ]
adapted_ji_idx = [ 53 188]
memory = 1552.56832
int3c2e [1/1], AO [0:28], ncol = 7396
kpt = [ 0.61317081 -1.22634162  0.61317081]
adapted_ji_idx = [ 61  73 205 226]
memory = 1553.211392
int3c2e [1/1], AO [0:28], ncol = 7396
kpt = [ 0.61317081  0.61317081 -1.22634162]
adapted_ji_idx = [ 80 125 242 314]
memory = 1553.190912
int3c2e [1/1], AO [0:28], ncol = 7396
kpt = [-0.3065854 -0.3065854 -0.3065854]
adapted_ji_idx = [ 91 106 139 157 262 286 337 364]
memory = 1554.239488
int3c2e [1/1], AO [0:28], ncol = 7396
Symmetry pattern (k + [ 1.53292702 -0.3065854  -0.3065854 ])*a= 2n pi
    make_kpt for [42 51 59 62]
kpt = [ 1.22634162 -0.61317081 -0.61317081]
adapted_ji_idx = [175 195 238 261]
memory = 1554.382848
int3c2e [1/1], AO [0:28], ncol = 7396
kpt = [ 0.3065854  -1.53292702  0.3065854 ]
adapted_ji_idx = [213 282]
memory = 1548.087296
int3c2e [1/1], AO [0:28], ncol = 7396
kpt = [ 0.3065854   0.3065854  -1.53292702]
adapted_ji_idx = [301 327]
memory = 1548.050432
int3c2e [1/1], AO [0:28], ncol = 7396
kpt = [-0.61317081 -0.61317081 -0.61317081]
adapted_ji_idx = [351]
memory = 1549.324288
int3c2e [1/1], AO [0:28], ncol = 7396
    CPU time for j3c  78098.08 sec, wall time   2759.23 sec
    CPU time for Init get_k_kpts  78098.56 sec, wall time   2759.24 sec
    CPU time for get_k_kpts: make_kpt ki>=kj (0,*)      2.72 sec, wall time      0.24 sec
    CPU time for get_k_kpts: make_kpt ki>=kj (1,*)      6.27 sec, wall time      0.20 sec
    CPU time for get_k_kpts: make_kpt ki>=kj (2,*)     10.16 sec, wall time      0.32 sec
    CPU time for get_k_kpts: make_kpt ki>=kj (3,*)     11.89 sec, wall time      0.37 sec
    CPU time for get_k_kpts: make_kpt ki>=kj (4,*)     13.49 sec, wall time      0.42 sec
    CPU time for get_k_kpts: make_kpt ki>=kj (5,*)     16.40 sec, wall time      0.51 sec
    CPU time for get_k_kpts: make_kpt ki>=kj (6,*)     18.57 sec, wall time      0.58 sec
    CPU time for get_k_kpts: make_kpt ki>=kj (7,*)     21.06 sec, wall time      0.66 sec
    CPU time for get_k_kpts: make_kpt ki>=kj (8,*)     23.25 sec, wall time      0.75 sec
    CPU time for get_k_kpts: make_kpt ki>=kj (9,*)     24.32 sec, wall time      0.76 sec
    CPU time for get_k_kpts: make_kpt ki>=kj (10,*)     26.06 sec, wall time      0.82 sec
    CPU time for get_k_kpts: make_kpt ki>=kj (11,*)     28.63 sec, wall time      0.90 sec
    CPU time for get_k_kpts: make_kpt ki>=kj (12,*)     35.12 sec, wall time      1.11 sec
    CPU time for get_k_kpts: make_kpt ki>=kj (13,*)     39.92 sec, wall time      1.26 sec
    CPU time for get_k_kpts: make_kpt ki>=kj (14,*)     48.92 sec, wall time      1.57 sec
    CPU time for get_k_kpts: make_kpt ki>=kj (15,*)     58.11 sec, wall time      1.86 sec
    CPU time for get_k_kpts: make_kpt ki>=kj (16,*)     47.39 sec, wall time      1.51 sec
    CPU time for get_k_kpts: make_kpt ki>=kj (17,*)     41.77 sec, wall time      1.31 sec
    CPU time for get_k_kpts: make_kpt ki>=kj (18,*)     46.04 sec, wall time      1.45 sec
    CPU time for get_k_kpts: make_kpt ki>=kj (19,*)     47.55 sec, wall time      1.50 sec
    CPU time for get_k_kpts: make_kpt ki>=kj (20,*)     49.42 sec, wall time      1.55 sec
    CPU time for get_k_kpts: make_kpt ki>=kj (21,*)     54.37 sec, wall time      1.72 sec
    CPU time for get_k_kpts: make_kpt ki>=kj (22,*)     63.01 sec, wall time      1.99 sec
    CPU time for get_k_kpts: make_kpt ki>=kj (23,*)     70.51 sec, wall time      2.22 sec
    CPU time for get_k_kpts: make_kpt ki>=kj (24,*)     73.36 sec, wall time      2.31 sec
    CPU time for get_k_kpts: make_kpt ki>=kj (25,*)     77.72 sec, wall time      2.44 sec
    CPU time for get_k_kpts: make_kpt ki>=kj (26,*)     81.33 sec, wall time      2.55 sec
Monkhorst pack size [3 3 3] ew_eta 2.0415012507608057 ew_cut 3.446555143149695
Ewald components = 0, -1.15196888453017, 1.04011066863786
    CPU time for get_j pass 1     29.90 sec, wall time      1.03 sec
    CPU time for get_j pass 2      4.83 sec, wall time      0.74 sec
    CPU time for vj and vk  79175.31 sec, wall time   2794.06 sec
Ewald components = 2.22177160975447e-132, -245.992357858762, 217.051170209755
E1 = (-56.25238687196467-5.8896431970117746e-15j)  E_coul = (4.757566152242875-4.3463175445510755e-15j)
init E= -80.4360083687286
cond(S) = [3.58358398e+09 4.84592311e+08 4.84592299e+08 4.84592317e+08
 3.06115742e+07 1.94884773e+08 4.84592311e+08 1.94884776e+08
 3.06115742e+07 4.84592313e+08 3.06115742e+07 1.94884773e+08
 3.06115742e+07 4.84592310e+08 1.94884780e+08 1.94884776e+08
 1.94884778e+08 1.94884777e+08 4.84592316e+08 1.94884774e+08
 3.06115742e+07 1.94884773e+08 1.94884776e+08 1.94884773e+08
 3.06115742e+07 1.94884774e+08 4.84592297e+08]
    CPU time for initialize scf  80698.11 sec, wall time   2843.89 sec
HOMO = 0.464005199455  LUMO = 0.802485657797
     k-point                  mo_energy
   0 ( 0.000  0.000  0.000)   [-14.97547931  -7.00781702  -1.78308706   0.46399143   0.4640052
   0.4640052 ] [  0.89666425   0.99072701   0.99083178   0.99083178   1.61774323
   1.74507798   1.74507798   1.76812832   1.76812834   1.76813748
   2.12536006   2.54755765   2.54755791   2.54757256   3.31337432
   3.31337694   3.31337719   3.57085373   3.57085373   3.62989694
   3.62989694   3.62990365   3.77002709   3.77003528   3.77003734
   4.32743728   4.51988556   4.51989582   4.51990062   4.66877553
   4.66877553   4.75011677   4.7501213    4.7501277    4.99048847
   5.20418312   5.2042487    5.20426739   6.00118632   6.0600339
   6.06003567   6.06003567   6.14679351   6.14693395   6.14695102
   6.79263804   6.79265245   6.79265348   6.93688938   6.93688938
   7.54584899   8.28439774   8.28446906   8.28448155  13.88800471
  13.88804436  13.88805665  13.91817013  23.7174358   23.71744051
  23.71744565  24.06425538  38.04898689  38.04898689  38.11200957
  38.11200958  38.1120134   40.11485781  40.11485781  40.44322621
  40.44322681  40.4432527   58.7712979   58.77130204  58.77130667
  63.71452599 111.27762531 111.27762574 111.27764205 118.26507029]
   1 ( 0.000  0.000  0.333)   [-14.97090942  -7.00120568  -1.11823385  -0.06274784   0.38999456
   0.39010256] [  0.93994089   1.06222816   1.06232503   1.1942258    1.55729421
   1.61478514   1.61480147   1.77220025   2.22226942   2.22227643
   2.40344567   2.42530744   2.42531792   2.6808619    2.94849957
   2.94850992   3.19410801   3.35409583   3.35411402   3.59553322
   3.59555806   3.74170412   3.74171181   3.74766258   3.76806775
   3.95786847   4.1724411    4.1925049    4.19251804   4.53529735
   4.53531205   4.82427556   4.93606922   4.93609025   4.97187947
   5.14489777   5.14493972   5.24221128   5.70477766   5.83281495
   6.01397141   6.01398568   6.32449139   6.32449732   6.72788399
   6.84119736   6.8412156    7.24087502   7.25168515   7.25172452
   7.70367225   7.70368126   7.87705901   8.73919407  13.23642891
  13.40085511  13.40086185  15.97325165  22.91073747  23.49869645
  23.49869924  25.74018815  38.07140025  38.07140221  38.1287471
  38.12875201  38.15035568  40.14058414  40.14059465  40.3044673
  40.30447989  40.35618003  58.25069582  58.35479966  58.35480344
  67.36288466 110.70963144 111.11120022 111.11121467 120.96600773]
   2 ( 0.000  0.000  0.667)   [-14.97090942  -7.00120568  -1.11823385  -0.06274784   0.38999456
   0.39010256] [  0.93994089   1.06222817   1.06232503   1.1942258    1.55729421
   1.61478516   1.61480147   1.77220025   2.22226945   2.22227643
   2.40344567   2.42530765   2.42531924   2.68086188   2.94850059
   2.94851012   3.19410801   3.35409612   3.35411407   3.59553332
   3.59555874   3.74170436   3.74171346   3.74766258   3.76806772
   3.95786847   4.17244109   4.19250492   4.1925182    4.53530687
   4.5353158    4.82427555   4.93608291   4.93609581   4.9718794
   5.14492283   5.14494926   5.24221122   5.70477766   5.83281487
   6.01398118   6.01399087   6.32449193   6.32449999   6.72788389
   6.84120285   6.84121675   7.240875     7.25170775   7.25173158
   7.70367244   7.70368198   7.87705902   8.73919383  13.2364289
  13.4008589   13.40086908  15.97325163  22.91073747  23.49869669
  23.49870056  25.7401881   38.0714004   38.07140224  38.12874711
  38.12875205  38.15035568  40.14058418  40.14059492  40.30446733
  40.30448006  40.35618003  58.25069582  58.35479982  58.35480451
  67.36288465 110.70963144 111.11120025 111.11121483 120.96600772]
   3 (-0.000  0.333  0.000)   [-14.97090942  -7.00120568  -1.11823385  -0.06274784   0.38999456
   0.39010256] [  0.93994089   1.06222816   1.06232503   1.1942258    1.55729421
   1.61478511   1.61480144   1.77220025   2.2222694    2.2222764
   2.40344567   2.4253059    2.42531667   2.68086193   2.94849849
   2.94850885   3.194108     3.35409551   3.3541137    3.59553244
   3.59555739   3.7417021    3.74171033   3.74766258   3.7680678
   3.95786849   4.1724411    4.1925047    4.19251788   4.53528235
   4.5353028    4.82427552   4.93604714   4.93607677   4.9718795
   5.14486182   5.14491484   5.24221131   5.70477766   5.83281498
   6.0139542    6.01397564   6.32448797   6.32449514   6.72788404
   6.84119126   6.84120986   7.24087506   7.25165337   7.25170268
   7.70367146   7.70368058   7.87705902   8.73919414  13.23642895
  13.40084127  13.40085553  15.97325167  22.91073748  23.49869475
  23.49869812  25.74018814  38.07140009  38.07140204  38.12874705
  38.12875197  38.15035568  40.14058384  40.1405944   40.30446711
  40.30447973  40.35618003  58.25069583  58.35479833  58.35480252
  67.36288466 110.70963145 111.11120005 111.11121451 120.96600772]
   4 ( 0.000  0.333  0.333)   [-14.96997418  -7.00018392  -0.95944253   0.04116679   0.25386869
   0.25469768] [  0.80248566   0.97252612   1.28120965   1.28126776   1.39114921
   1.77110507   1.94826386   2.06500426   2.06502839   2.19928937
   2.24910089   2.24911022   2.49201558   2.56089723   2.97279567
   3.0847741    3.08477613   3.26073868   3.29258901   3.29259636
   3.30286285   3.53988842   3.79574557   3.79574592   3.89894502
   4.12416561   4.33762406   4.40541634   4.40542147   4.47728306
   4.63623483   4.66647458   4.79737554   4.79738044   5.0723746
   5.07238185   5.1232902    5.65773465   5.65774154   5.67756867
   6.10561694   6.17933214   6.44409784   6.4441083    7.00403986
   7.09673096   7.13100269   7.17474789   7.17476636   7.42789688
   7.71503216   7.71503559   7.95045895   8.47860435  13.48211314
  13.48212055  13.78198111  16.74781427  23.08999289  23.62255237
  23.62255478  25.70527199  38.06475432  38.07943777  38.11850833
  38.17186394  38.1718666   40.08862907  40.1235464   40.21240827
  40.21242604  40.34641297  58.44075923  58.44076276  58.62636786
  68.86749612 110.82536089 111.19748943 111.1975003  121.21355891]
   5 (-0.000  0.333  0.667)   [-1.49687601e+01 -6.99875141e+00 -6.10991068e-01 -1.30114365e-01
 -4.38044236e-03  2.86401577e-01] [  0.89305199   1.16784103   1.23650326   1.28751099   1.3659114
   1.63830829   1.75632178   2.0314614    2.25681982   2.26943682
   2.40981972   2.58374596   2.61834164   2.7442397    2.79502191
   2.9052973    3.03573918   3.0709889    3.21878658   3.31776282
   3.38028092   3.44671528   3.57624421   3.76619464   3.78861089
   3.99312113   4.16399012   4.28948982   4.34700604   4.36033717
   4.526788     4.81766263   4.98159192   5.10100798   5.14744806
   5.27261023   5.39040643   5.74013023   5.7529892    5.90362923
   5.9668207    6.1659933    6.4755139    6.56655213   6.66980431
   6.8853029    6.95416605   7.1223385    7.22682425   7.54338107
   7.61960981   7.67931582   8.02211725   8.52920295  13.22640437
  13.81954108  14.03541809  16.14806632  22.93611533  23.32680663
  23.67102258  25.10649409  38.04342195  38.05173495  38.14515854
  38.15199645  38.21408231  40.08639762  40.12294086  40.17774195
  40.28190399  40.3798308   58.27138037  58.68690302  58.83272529
  67.58725373 110.69657353 110.98135961 111.24405835 120.03386769]
   6 (-0.000  0.667  0.000)   [-14.97090942  -7.00120568  -1.11823385  -0.06274784   0.38999456
   0.39010256] [  0.93994089   1.06222816   1.06232503   1.1942258    1.55729421
   1.61478514   1.61480144   1.77220025   2.22226942   2.2222764
   2.40344567   2.42530603   2.42531801   2.68086191   2.94849962
   2.94850889   3.194108     3.35409582   3.35411371   3.59553248
   3.59555807   3.7417023    3.74171191   3.74766258   3.76806777
   3.9578685    4.1724411    4.19250471   4.19251804   4.53529284
   4.5353048    4.82427553   4.9360624    4.93607973   4.97187947
   5.14488962   5.14492108   5.2422113    5.70477766   5.83281494
   6.01396503   6.01397902   6.32448847   6.32449789   6.72788401
   6.84119764   6.84121014   7.24087506   7.2516784    7.2517061
   7.70367152   7.70368143   7.87705901   8.73919411  13.23642894
  13.40084659  13.40086074  15.97325165  22.91073748  23.49869501
  23.49869935  25.74018814  38.07140026  38.07140205  38.12874705
  38.12875202  38.15035568  40.14058385  40.14059467  40.30446712
  40.30447992  40.35618003  58.25069583  58.35479847  58.35480355
  67.36288466 110.70963145 111.11120005 111.11121469 120.96600773]
   7 (-0.000  0.667  0.333)   [-1.49687601e+01 -6.99875141e+00 -6.10991068e-01 -1.30114365e-01
 -4.38044236e-03  2.86401577e-01] [  0.89305199   1.16784103   1.23650326   1.28751099   1.3659114
   1.63830829   1.75632178   2.0314614    2.25681982   2.26943682
   2.40981972   2.58374596   2.61834165   2.7442397    2.79502199
   2.9052973    3.03573919   3.07098888   3.21878684   3.31776275
   3.38028092   3.44671527   3.57624423   3.76619481   3.78861088
   3.99312106   4.16399013   4.28948985   4.34700604   4.3603372
   4.52678803   4.81766263   4.98159206   5.10100794   5.14744962
   5.27261157   5.39040593   5.74013018   5.7529893    5.90362922
   5.96682246   6.16599318   6.47551394   6.56655235   6.66980423
   6.88530319   6.95416611   7.12233857   7.22682407   7.5433809
   7.61960969   7.67931836   8.02211747   8.5292028   13.22640436
  13.81954104  14.03541811  16.14806633  22.93611533  23.32680668
  23.6710226   25.10649409  38.04342195  38.05173495  38.14515854
  38.15199645  38.21408231  40.08639762  40.12294086  40.17774198
  40.281904    40.37983079  58.27138037  58.68690301  58.83272529
  67.58725374 110.69657353 110.98135962 111.24405835 120.03386769]
   8 ( 0.000  0.667  0.667)   [-14.96997418  -7.00018392  -0.95944253   0.04116679   0.25386869
   0.25469768] [  0.80248566   0.97252612   1.28120965   1.28126776   1.39114921
   1.77110507   1.94826386   2.06500426   2.06502839   2.19928933
   2.24910089   2.24911023   2.49201557   2.56089723   2.97279566
   3.08477411   3.08477614   3.26073861   3.29258902   3.29259637
   3.30286284   3.53988841   3.79574559   3.79574596   3.89894501
   4.12416561   4.33762396   4.40541637   4.40542148   4.47728306
   4.63623478   4.66647457   4.79737555   4.79738044   5.07237462
   5.07238191   5.12329019   5.65773472   5.65774157   5.67756828
   6.10561686   6.17933215   6.44409789   6.44410833   7.00403986
   7.09673088   7.13100266   7.17474791   7.17476641   7.42789657
   7.71503222   7.7150357    7.95045894   8.47860452  13.48211314
  13.48212055  13.78198112  16.74781388  23.08999289  23.62255239
  23.62255479  25.70527202  38.06475432  38.07943777  38.11850833
  38.17186394  38.1718666   40.08862907  40.1235464   40.21240827
  40.21242604  40.34641296  58.44075923  58.44076276  58.62636786
  68.86749597 110.82536089 111.19748943 111.1975003  121.21355892]
   9 ( 0.333 -0.000 -0.000)   [-14.97090942  -7.00120568  -1.11823385  -0.06274784   0.38999456
   0.39010256] [  0.93994089   1.06222817   1.06232503   1.1942258    1.55729421
   1.61478516   1.61480142   1.77220025   2.22226944   2.22227638
   2.40344567   2.42530485   2.42531893   2.68086191   2.94850036
   2.94850792   3.19410801   3.35409604   3.35411344   3.59553189
   3.59555856   3.74170089   3.74171305   3.74766258   3.76806776
   3.95786848   4.1724411    4.19250456   4.19251816   4.53528766
   4.53530799   4.82427559   4.93605468   4.93608453   4.97187954
   5.1448774    5.14492644   5.24221133   5.70477766   5.832815
   6.01395797   6.01398374   6.3244861    6.32449955   6.72788407
   6.84120112   6.84120533   7.24087505   7.25167026   7.25170935
   7.70367083   7.70368189   7.87705903   8.73919428  13.23642893
  13.40083973  13.40086589  15.9732517   22.91073748  23.49869388
  23.49870023  25.7401882   38.07140037  38.0714019   38.12874701
  38.12875205  38.15035568  40.14058362  40.14059486  40.30446696
  40.30448004  40.35618003  58.25069583  58.35479758  58.35480427
  67.36288468 110.70963145 111.11119991 111.1112148  120.96600774]
  10 ( 0.333  0.000  0.333)   [-14.96997418  -7.00018392  -0.95944253   0.04116679   0.25386869
   0.25469768] [  0.80248566   0.97252612   1.28120965   1.28126776   1.39114921
   1.77110507   1.94826386   2.06500426   2.06502839   2.19928937
   2.24910088   2.24911022   2.49201558   2.56089723   2.97279568
   3.0847741    3.08477613   3.26073865   3.292589     3.29259636
   3.30286285   3.53988844   3.79574557   3.79574591   3.89894502
   4.12416561   4.33762403   4.40541633   4.40542147   4.47728306
   4.63623482   4.66647458   4.79737554   4.79738044   5.07237458
   5.0723818    5.12329007   5.65773463   5.65774153   5.6775688
   6.10561674   6.17933215   6.44409783   6.4441083    7.00403986
   7.09673098   7.13100273   7.17474787   7.17476634   7.42789666
   7.71503215   7.71503554   7.95045891   8.47860404  13.48211314
  13.48212055  13.78198112  16.74781426  23.08999288  23.62255236
  23.62255478  25.70527194  38.06475432  38.07943777  38.11850833
  38.17186394  38.1718666   40.08862907  40.1235464   40.21240827
  40.21242604  40.34641297  58.44075923  58.44076276  58.62636786
  68.86749611 110.82536089 111.19748943 111.1975003  121.21355889]
  11 ( 0.333 -0.000  0.667)   [-1.49687601e+01 -6.99875141e+00 -6.10991068e-01 -1.30114365e-01
 -4.38044236e-03  2.86401577e-01] [  0.89305199   1.16784103   1.23650326   1.28751099   1.3659114
   1.6383083    1.75632178   2.0314614    2.25681982   2.26943682
   2.40981972   2.58374596   2.61834172   2.7442397    2.79502237
   2.9052973    3.03573922   3.07098887   3.21878838   3.31776276
   3.38028092   3.44671527   3.5762442    3.76619581   3.78861088
   3.99312107   4.1639901    4.28948983   4.34700604   4.36033729
   4.52678803   4.81766258   4.9815929    5.10100776   5.14745666
   5.27262068   5.390406     5.74013002   5.75298967   5.90362922
   5.96683192   6.16599314   6.47551389   6.56655418   6.66980427
   6.88530479   6.95416605   7.12233888   7.22682397   7.54338096
   7.61960992   7.67933411   8.02211717   8.52920254  13.22640436
  13.81954104  14.03541875  16.14806625  22.93611533  23.32680692
  23.6710226   25.10649409  38.04342195  38.05173498  38.14515855
  38.15199645  38.21408231  40.08639764  40.12294086  40.1777422
  40.28190399  40.37983079  58.27138037  58.68690301  58.83272535
  67.58725371 110.69657353 110.98135964 111.24405835 120.03386769]
  12 ( 0.333  0.333  0.000)   [-14.96997418  -7.00018392  -0.95944253   0.04116679   0.25386869
   0.25469768] [  0.80248566   0.97252612   1.28120965   1.28126776   1.39114921
   1.77110507   1.94826386   2.06500426   2.06502839   2.19928934
   2.24910088   2.24911023   2.49201558   2.56089723   2.97279566
   3.08477411   3.08477613   3.26073859   3.29258902   3.29259635
   3.30286284   3.53988842   3.79574555   3.79574594   3.89894501
   4.1241656    4.33762395   4.40541635   4.40542146   4.47728306
   4.63623474   4.66647458   4.79737554   4.79738044   5.07237455
   5.07238187   5.12329004   5.65773468   5.65774151   5.67756871
   6.10561659   6.17933215   6.44409786   6.44410828   7.00403986
   7.096731     7.13100267   7.17474786   7.17476638   7.42789655
   7.7150321    7.71503563   7.95045886   8.47860417  13.48211314
  13.48212055  13.78198114  16.74781424  23.08999287  23.62255238
  23.62255477  25.70527195  38.06475432  38.07943777  38.11850833
  38.17186394  38.1718666   40.08862907  40.1235464   40.21240827
  40.21242604  40.34641297  58.44075923  58.44076276  58.62636787
  68.86749611 110.82536089 111.19748943 111.1975003  121.2135589 ]
  13 ( 0.333  0.333  0.333)   [-14.97090041  -7.00121424  -1.11822304  -0.06279997   0.39056566
   0.39056567] [  0.93997921   1.06221581   1.06221581   1.19415183   1.55727418
   1.61480217   1.61480225   1.77221105   2.22226373   2.22226381
   2.40342481   2.42530894   2.42531297   2.68085451   2.94851078
   2.94851389   3.19410612   3.35407787   3.35407878   3.59555568
   3.59555779   3.74170954   3.74171464   3.74766501   3.76807216
   3.95788974   4.1724373    4.1924943    4.19249483   4.53528464
   4.5353198    4.82427704   4.93605749   4.93610858   4.97189734
   5.14491988   5.14500799   5.24222202   5.70477927   5.83282871
   6.01394771   6.01398728   6.32448443   6.32449263   6.72788234
   6.84120657   6.84122385   7.2408629    7.25166909   7.25174688
   7.70367539   7.70367756   7.87706057   8.73919842  13.23644397
  13.40084334  13.40087265  15.97325053  22.91073903  23.4986941
  23.49869818  25.74018805  38.07139861  38.07139909  38.12875012
  38.12875025  38.15035891  40.14059563  40.14059643  40.30445477
  40.30445529  40.35620481  58.25070084  58.35479815  58.35480146
  67.36288544 110.70964584 111.11119988 111.11120038 120.96600733]
  14 ( 0.333  0.333  0.667)   [-1.49687601e+01 -6.99874113e+00 -6.11032764e-01 -1.29459609e-01
 -4.59944749e-03  2.87021951e-01] [  0.89315508   1.16766224   1.2364395    1.28747479   1.36594294
   1.638337     1.7563277    2.03147635   2.25681148   2.26945245
   2.40981767   2.58374764   2.61834061   2.74422796   2.79500405
   2.90528715   3.03571416   3.07097711   3.2187886    3.31776907
   3.38029052   3.44673291   3.576234     3.76618934   3.78860896
   3.99313832   4.16400204   4.28950244   4.34700067   4.36033261
   4.52679642   4.81766755   4.98159705   5.10101192   5.14744596
   5.27260191   5.39040052   5.74012099   5.7529921    5.90361401
   5.96681165   6.16600359   6.47551599   6.56655477   6.66980264
   6.88531498   6.95416259   7.1223333    7.22682781   7.54337457
   7.61960764   7.67931881   8.02212225   8.52920188  13.22641188
  13.81953973  14.03541145  16.14806699  22.93611738  23.32680373
  23.67102067  25.10649468  38.04341928  38.05173472  38.14515615
  38.15199928  38.2140851   40.08638513  40.12295853  40.17773665
  40.2818919   40.3798439   58.27138268  58.68690418  58.83272182
  67.58725348 110.69658234 110.98134864 111.24406037 120.03386732]
  15 ( 0.333  0.667 -0.000)   [-1.49687601e+01 -6.99875141e+00 -6.10991068e-01 -1.30114365e-01
 -4.38044236e-03  2.86401577e-01] [  0.89305199   1.16784103   1.23650326   1.28751099   1.3659114
   1.63830829   1.75632178   2.0314614    2.25681982   2.26943682
   2.40981972   2.58374596   2.61834168   2.7442397    2.79502216
   2.9052973    3.0357392    3.07098889   3.21878751   3.31776277
   3.38028092   3.44671527   3.57624421   3.76619525   3.78861088
   3.9931211    4.16399011   4.28948981   4.34700605   4.36033724
   4.52678801   4.8176626    4.98159242   5.10100798   5.14745272
   5.27261553   5.39040585   5.74013024   5.75298946   5.90362922
   5.96682664   6.16599322   6.47551394   6.56655314   6.66980425
   6.88530388   6.95416601   7.12233871   7.22682414   7.54338089
   7.61960944   7.67932528   8.02211736   8.52920303  13.22640438
  13.81954105  14.03541838  16.14806633  22.93611533  23.32680678
  23.67102257  25.1064941   38.04342195  38.05173497  38.14515855
  38.15199645  38.21408231  40.08639763  40.12294086  40.17774208
  40.281904    40.3798308   58.27138037  58.68690301  58.83272531
  67.58725373 110.69657353 110.98135963 111.24405835 120.03386769]
  16 ( 0.333  0.667  0.333)   [-1.49687601e+01 -6.99874113e+00 -6.11032764e-01 -1.29459609e-01
 -4.59944748e-03  2.87021951e-01] [  0.89315508   1.16766224   1.2364395    1.28747479   1.36594294
   1.63833701   1.7563277    2.03147634   2.25681149   2.26945245
   2.40981767   2.58374763   2.61834066   2.74422795   2.79500431
   2.90528715   3.03571419   3.07097708   3.21878975   3.317769
   3.38029053   3.4467329    3.57623398   3.76619006   3.78860895
   3.99313826   4.16400203   4.28950244   4.34700067   4.36033268
   4.52679643   4.81766751   4.98159769   5.10101164   5.14745079
   5.27260895   5.39040004   5.7401207    5.75299235   5.903614
   5.96681852   6.16600341   6.47551592   6.56655623   6.66980259
   6.88531614   6.9541626    7.12233351   7.2268275    7.54337445
   7.61960764   7.67933073   8.02212211   8.52920128  13.22641186
  13.8195397   14.03541204  16.14806693  22.93611738  23.32680391
  23.67102068  25.10649467  38.04341927  38.05173474  38.14515616
  38.15199928  38.2140851   40.08638514  40.12295853  40.17773681
  40.28189189  40.37984389  58.27138268  58.68690418  58.83272187
  67.58725346 110.69658234 110.98134866 111.24406037 120.03386732]
  17 ( 0.333  0.667  0.667)   [-1.49687601e+01 -6.99874113e+00 -6.11032764e-01 -1.29459609e-01
 -4.59944754e-03  2.87021951e-01] [  0.89315508   1.16766224   1.2364395    1.28747479   1.36594294
   1.638337     1.7563277    2.03147635   2.25681148   2.26945245
   2.40981767   2.58374764   2.61834057   2.74422796   2.7950039
   2.90528715   3.03571414   3.0709771    3.21878784   3.31776903
   3.38029052   3.4467329    3.57623401   3.76618888   3.78860896
   3.99313829   4.16400205   4.28950242   4.34700066   4.36033257
   4.52679635   4.81766752   4.98159663   5.10101195   5.14744304
   5.27259717   5.39039998   5.74012109   5.75299196   5.90361401
   5.96680724   6.16600355   6.47551596   6.56655378   6.66980253
   6.88531425   6.95416261   7.12233318   7.22682757   7.54337432
   7.61960711   7.67931088   8.0221224    8.52920193  13.22641186
  13.81953972  14.03541101  16.14806712  22.93611738  23.32680361
  23.67102061  25.10649467  38.04341927  38.0517347   38.14515615
  38.15199928  38.2140851   40.08638512  40.12295853  40.17773654
  40.2818919   40.3798439   58.27138268  58.68690418  58.83272178
  67.5872535  110.69658234 110.98134862 111.24406036 120.03386732]
  18 ( 0.667 -0.000 -0.000)   [-14.97090942  -7.00120568  -1.11823385  -0.06274784   0.38999456
   0.39010256] [  0.93994089   1.06222816   1.06232503   1.1942258    1.55729421
   1.61478512   1.61480143   1.77220025   2.22226941   2.2222764
   2.40344567   2.42530553   2.42531713   2.68086191   2.94849892
   2.94850845   3.19410801   3.35409564   3.35411362   3.59553229
   3.59555765   3.74170178   3.74171083   3.74766258   3.76806777
   3.95786847   4.17244109   4.19250467   4.19251794   4.53528724
   4.53529917   4.82427554   4.9360543    4.93607171   4.97187953
   5.14487217   5.14490401   5.24221134   5.70477766   5.83281499
   6.01395903   6.01397192   6.32448703   6.3244958    6.72788409
   6.8411936    6.84120722   7.240875     7.25166419   7.25169344
   7.70367105   7.70368085   7.87705903   8.73919425  13.23642894
  13.4008429   13.40085465  15.9732517   22.91073748  23.49869451
  23.49869844  25.74018818  38.07140015  38.07140199  38.12874703
  38.12875198  38.15035568  40.14058377  40.1405945   40.30446704
  40.30447979  40.35618003  58.25069583  58.35479813  58.35480281
  67.36288468 110.70963145 111.1112     111.11121457 120.96600773]
  19 ( 0.667 -0.000  0.333)   [-1.49687601e+01 -6.99875141e+00 -6.10991068e-01 -1.30114365e-01
 -4.38044236e-03  2.86401577e-01] [  0.89305199   1.16784103   1.23650326   1.28751099   1.3659114
   1.6383083    1.75632178   2.0314614    2.25681982   2.26943682
   2.40981972   2.58374596   2.61834174   2.74423969   2.79502245
   2.90529731   3.03573923   3.07098886   3.21878877   3.3177627
   3.38028092   3.44671527   3.57624419   3.76619605   3.78861087
   3.99312102   4.16399009   4.28948981   4.34700605   4.36033731
   4.52678798   4.81766256   4.98159312   5.10100768   5.14745826
   5.27262308   5.39040545   5.74012997   5.75298975   5.90362921
   5.96683425   6.16599304   6.47551385   6.56655468   6.66980418
   6.88530517   6.95416599   7.12233895   7.22682384   7.54338077
   7.61960944   7.67933819   8.02211701   8.52920247  13.22640436
  13.81954102  14.03541896  16.14806624  22.93611533  23.32680698
  23.67102256  25.1064941   38.04342195  38.05173499  38.14515856
  38.15199645  38.21408231  40.08639764  40.12294085  40.17774226
  40.28190399  40.37983079  58.27138037  58.68690301  58.83272537
  67.58725371 110.69657353 110.98135965 111.24405835 120.03386769]
  20 ( 0.667  0.000  0.667)   [-14.96997418  -7.00018392  -0.95944253   0.04116679   0.25386869
   0.25469768] [  0.80248566   0.97252612   1.28120965   1.28126776   1.39114921
   1.77110507   1.94826386   2.06500426   2.06502838   2.19928945
   2.24910088   2.24911022   2.4920156    2.56089723   2.97279569
   3.08477409   3.08477612   3.26073882   3.292589     3.29259634
   3.30286286   3.53988846   3.79574552   3.79574587   3.89894503
   4.1241656    4.33762422   4.40541632   4.40542144   4.47728306
   4.63623486   4.66647457   4.79737553   4.79738042   5.07237448
   5.07238174   5.1232903    5.65773458   5.65774145   5.67756948
   6.10561706   6.17933215   6.44409779   6.44410825   7.00403986
   7.09673108   7.13100281   7.1747478    7.17476629   7.42789724
   7.715032     7.71503546   7.95045893   8.4786044   13.48211314
  13.48212055  13.78198113  16.74781504  23.08999289  23.62255235
  23.62255476  25.705272    38.06475432  38.07943777  38.11850833
  38.17186394  38.1718666   40.08862907  40.12354641  40.21240827
  40.21242604  40.34641297  58.44075923  58.44076276  58.62636786
  68.86749639 110.82536089 111.19748943 111.1975003  121.21355891]
  21 ( 0.667  0.333 -0.000)   [-1.49687601e+01 -6.99875141e+00 -6.10991068e-01 -1.30114365e-01
 -4.38044236e-03  2.86401577e-01] [  0.89305199   1.16784103   1.23650326   1.28751099   1.3659114
   1.63830829   1.75632178   2.0314614    2.25681982   2.26943682
   2.40981972   2.58374596   2.61834164   2.7442397    2.795022
   2.9052973    3.03573918   3.07098887   3.21878668   3.3177627
   3.38028092   3.44671526   3.57624421   3.76619475   3.78861088
   3.99312104   4.16399011   4.28948982   4.34700604   4.3603372
   4.52678795   4.81766261   4.98159195   5.10100791   5.14744978
   5.27261028   5.39040526   5.74013017   5.75298933   5.90362922
   5.96682198   6.1659931    6.47551392   6.566552     6.66980411
   6.8853031    6.95416602   7.12233858   7.22682395   7.54338058
   7.61960919   7.67931666   8.02211727   8.52920277  13.22640436
  13.819541    14.03541784  16.14806629  22.93611533  23.32680666
  23.67102254  25.1064941   38.04342195  38.05173495  38.14515854
  38.15199645  38.21408231  40.08639762  40.12294085  40.17774196
  40.28190399  40.37983079  58.27138037  58.68690301  58.83272526
  67.58725372 110.69657353 110.98135962 111.24405834 120.03386769]
  22 ( 0.667  0.333  0.333)   [-1.49687601e+01 -6.99874113e+00 -6.11032764e-01 -1.29459609e-01
 -4.59944748e-03  2.87021951e-01] [  0.89315508   1.16766224   1.2364395    1.28747479   1.36594294
   1.638337     1.7563277    2.03147635   2.25681148   2.26945245
   2.40981767   2.58374763   2.61834055   2.74422796   2.7950038
   2.90528715   3.03571413   3.0709771    3.2187874    3.31776903
   3.38029052   3.4467329    3.576234     3.7661886    3.78860896
   3.99313831   4.16400204   4.28950243   4.34700066   4.36033254
   4.52679638   4.81766754   4.98159637   5.10101184   5.14744124
   5.27259441   5.39039994   5.74012096   5.75299187   5.903614
   5.96680462   6.16600353   6.47551595   6.56655319   6.66980256
   6.88531381   6.95416261   7.12233311   7.22682771   7.54337437
   7.61960727   7.67930622   8.02212218   8.52920162  13.22641187
  13.8195397   14.03541075  16.148067    22.93611738  23.32680354
  23.67102064  25.10649467  38.04341927  38.0517347   38.14515614
  38.15199928  38.2140851   40.08638511  40.12295853  40.17773648
  40.28189189  40.37984389  58.27138268  58.68690418  58.83272175
  67.58725348 110.69658234 110.98134861 111.24406037 120.03386732]
  23 ( 0.667  0.333  0.667)   [-1.49687601e+01 -6.99874113e+00 -6.11032764e-01 -1.29459609e-01
 -4.59944753e-03  2.87021951e-01] [  0.89315508   1.16766224   1.2364395    1.28747479   1.36594294
   1.63833701   1.7563277    2.03147634   2.25681148   2.26945245
   2.40981767   2.58374764   2.61834066   2.74422795   2.79500433
   2.90528715   3.03571419   3.07097707   3.21878977   3.31776899
   3.38029052   3.4467329    3.57623399   3.76619009   3.78860895
   3.99313823   4.16400203   4.28950243   4.34700067   4.36033268
   4.52679643   4.81766748   4.9815977    5.10101168   5.14745117
   5.27260893   5.39039974   5.74012082   5.75299238   5.903614
   5.96681877   6.16600337   6.47551593   6.56655619   6.66980258
   6.88531618   6.95416263   7.12233353   7.22682731   7.54337441
   7.61960737   7.67933087   8.02212237   8.52920141  13.22641187
  13.81953971  14.03541199  16.14806706  22.93611738  23.32680391
  23.67102066  25.10649466  38.04341927  38.05173474  38.14515616
  38.15199928  38.2140851   40.08638514  40.12295853  40.17773682
  40.28189189  40.37984389  58.27138268  58.68690418  58.83272187
  67.58725348 110.69658234 110.98134865 111.24406037 120.03386732]
  24 ( 0.667  0.667  0.000)   [-14.96997418  -7.00018392  -0.95944253   0.04116679   0.25386869
   0.25469768] [  0.80248566   0.97252612   1.28120965   1.28126776   1.39114921
   1.77110507   1.94826386   2.06500426   2.06502839   2.19928927
   2.24910089   2.24911023   2.49201556   2.56089723   2.97279566
   3.08477411   3.08477613   3.26073839   3.29258902   3.29259636
   3.30286285   3.5398884    3.79574557   3.79574595   3.898945
   4.1241656    4.33762368   4.40541636   4.40542147   4.47728306
   4.6362348    4.66647457   4.79737554   4.79738044   5.07237458
   5.07238187   5.12329005   5.65773469   5.65774154   5.67756815
   6.10561628   6.17933215   6.44409787   6.4441083    7.00403986
   7.09673088   7.13100266   7.17474787   7.17476639   7.42789577
   7.71503215   7.71503565   7.95045893   8.47860468  13.48211314
  13.48212055  13.78198113  16.74781327  23.08999287  23.62255238
  23.62255478  25.70527204  38.06475432  38.07943777  38.11850833
  38.17186394  38.1718666   40.08862907  40.1235464   40.21240827
  40.21242604  40.34641296  58.44075923  58.44076276  58.62636786
  68.86749576 110.82536089 111.19748944 111.1975003  121.21355892]
  25 ( 0.667  0.667  0.333)   [-1.49687601e+01 -6.99874113e+00 -6.11032764e-01 -1.29459609e-01
 -4.59944753e-03  2.87021951e-01] [  0.89315508   1.16766224   1.2364395    1.28747479   1.36594294
   1.63833701   1.7563277    2.03147635   2.25681148   2.26945245
   2.40981767   2.58374764   2.61834065   2.74422796   2.79500423
   2.90528715   3.03571418   3.07097709   3.21878942   3.31776902
   3.38029052   3.4467329    3.57623401   3.76618985   3.78860896
   3.99313825   4.16400205   4.28950244   4.34700067   4.36033265
   4.52679645   4.81766753   4.98159751   5.10101192   5.14744937
   5.27260687   5.39039987   5.74012104   5.75299228   5.903614
   5.9668165    6.16600347   6.47551602   6.5665558    6.66980263
   6.88531581   6.95416265   7.12233345   7.2268275    7.54337447
   7.61960735   7.67932722   8.02212263   8.5292018   13.22641188
  13.81953973  14.03541186  16.14806712  22.93611738  23.32680385
  23.67102068  25.10649467  38.04341927  38.05173473  38.14515616
  38.15199928  38.2140851   40.08638513  40.12295853  40.17773676
  40.2818919   40.37984389  58.27138268  58.68690418  58.83272186
  67.5872535  110.69658234 110.98134865 111.24406037 120.03386732]
  26 ( 0.667  0.667  0.667)   [-14.97090041  -7.00121424  -1.11822304  -0.06279997   0.39056566
   0.39056566] [  0.93997921   1.06221581   1.06221581   1.19415183   1.55727418
   1.61480219   1.61480223   1.77221105   2.22226375   2.22226379
   2.40342481   2.42530996   2.42531223   2.68085454   2.94851158
   2.94851332   3.19410613   3.35407811   3.3540786    3.5955562
   3.5955574    3.74171082   3.74171371   3.74766501   3.7680722
   3.95788976   4.17243731   4.19249442   4.19249474   4.53529357
   4.5353133    4.82427706   4.93607069   4.93609907   4.97189754
   5.14494215   5.14499229   5.2422221    5.70477927   5.83282883
   6.0139577    6.01398005   6.32448643   6.32449123   6.72788253
   6.84121081   6.84122087   7.24086291   7.25168876   7.25173271
   7.70367592   7.70367719   7.87706062   8.7391987   13.23644402
  13.40085074  13.4008673   15.97325062  22.91073903  23.49869515
  23.49869742  25.74018809  38.07139873  38.071399    38.12875015
  38.12875023  38.15035891  40.14059583  40.14059629  40.3044549
  40.3044552   40.35620481  58.25070085  58.35479899  58.35480084
  67.36288547 110.70964584 111.11120001 111.11120028 120.96600734]
    CPU time for get_k_kpts: make_kpt ki>=kj (0,*)      2.11 sec, wall time      0.08 sec
    CPU time for get_k_kpts: make_kpt ki>=kj (1,*)      7.84 sec, wall time      0.25 sec
    CPU time for get_k_kpts: make_kpt ki>=kj (2,*)     10.50 sec, wall time      0.33 sec
    CPU time for get_k_kpts: make_kpt ki>=kj (3,*)     12.38 sec, wall time      0.39 sec
    CPU time for get_k_kpts: make_kpt ki>=kj (4,*)     15.60 sec, wall time      0.49 sec
    CPU time for get_k_kpts: make_kpt ki>=kj (5,*)     18.20 sec, wall time      0.57 sec
    CPU time for get_k_kpts: make_kpt ki>=kj (6,*)     20.87 sec, wall time      0.66 sec
    CPU time for get_k_kpts: make_kpt ki>=kj (7,*)     24.31 sec, wall time      0.76 sec
    CPU time for get_k_kpts: make_kpt ki>=kj (8,*)     25.52 sec, wall time      0.80 sec
    CPU time for get_k_kpts: make_kpt ki>=kj (9,*)     24.31 sec, wall time      0.76 sec
    CPU time for get_k_kpts: make_kpt ki>=kj (10,*)     27.13 sec, wall time      0.85 sec
    CPU time for get_k_kpts: make_kpt ki>=kj (11,*)     28.81 sec, wall time      0.90 sec
    CPU time for get_k_kpts: make_kpt ki>=kj (12,*)     31.78 sec, wall time      1.00 sec
    CPU time for get_k_kpts: make_kpt ki>=kj (13,*)     33.91 sec, wall time      1.07 sec
    CPU time for get_k_kpts: make_kpt ki>=kj (14,*)     36.18 sec, wall time      1.14 sec
    CPU time for get_k_kpts: make_kpt ki>=kj (15,*)     38.25 sec, wall time      1.20 sec
    CPU time for get_k_kpts: make_kpt ki>=kj (16,*)     40.00 sec, wall time      1.26 sec
    CPU time for get_k_kpts: make_kpt ki>=kj (17,*)     41.68 sec, wall time      1.31 sec
    CPU time for get_k_kpts: make_kpt ki>=kj (18,*)     43.51 sec, wall time      1.37 sec
    CPU time for get_k_kpts: make_kpt ki>=kj (19,*)     46.35 sec, wall time      1.46 sec
    CPU time for get_k_kpts: make_kpt ki>=kj (20,*)     48.86 sec, wall time      1.53 sec
    CPU time for get_k_kpts: make_kpt ki>=kj (21,*)     51.66 sec, wall time      1.62 sec
    CPU time for get_k_kpts: make_kpt ki>=kj (22,*)     53.99 sec, wall time      1.70 sec
    CPU time for get_k_kpts: make_kpt ki>=kj (23,*)     57.74 sec, wall time      1.81 sec
    CPU time for get_k_kpts: make_kpt ki>=kj (24,*)     59.55 sec, wall time      1.87 sec
    CPU time for get_k_kpts: make_kpt ki>=kj (25,*)     62.67 sec, wall time      1.97 sec
    CPU time for get_k_kpts: make_kpt ki>=kj (26,*)     63.44 sec, wall time      1.99 sec
Monkhorst pack size [3 3 3] ew_eta 2.0415012507608057 ew_cut 3.446555143149695
Ewald components = 0, -1.15196888453017, 1.04011066863786
    CPU time for get_j pass 1     32.30 sec, wall time      1.03 sec
    CPU time for get_j pass 2      4.83 sec, wall time      0.73 sec
    CPU time for vj and vk    969.30 sec, wall time     31.09 sec
Ewald components = 2.22177160975447e-132, -245.992357858762, 217.051170209755
E1 = (-56.11761709959057-1.1142170258213331e-13j)  E_coul = (5.800632899722567+2.6760422652840026e-13j)
cycle= 1 E= -79.2581718488748  delta_E= 1.18  |g|= 1.47  |ddm|= 5.25e+03
    CPU time for cycle= 1    974.24 sec, wall time     31.44 sec
diis-norm(errvec)=5.80333
diis-c [-33.67868055+0.j   1.        +0.j]
HOMO = 0.286217471476  LUMO = 0.847135029081
     k-point                  mo_energy
   0 ( 0.000  0.000  0.000)   [-14.82929783  -7.05265196  -0.71716401   0.28618676   0.28618676
   0.28621747] [  0.99590071   0.99594665   0.99594665   1.07193192   1.63146252
   1.73425091   1.73425091   1.76064375   1.76064682   1.76064683
   2.111195     2.57141895   2.57141932   2.57142256   3.32817764
   3.32817877   3.32817898   3.59127688   3.59127688   3.63382371
   3.63382371   3.63382751   3.77468572   3.77469519   3.77469588
   4.33301528   4.51975838   4.51977483   4.51977707   4.66149527
   4.66149527   4.74306971   4.74307565   4.74307615   5.01095231
   5.21952769   5.21961351   5.21962086   6.0500101    6.1069202
   6.1069202    6.10692247   6.18143227   6.18157923   6.18158975
   6.85395654   6.85397052   6.85397165   7.01252359   7.01252359
   7.59148957   8.35372822   8.35380621   8.35381241  13.83419331
  13.83424029  13.83424519  13.87415705  23.84076992  23.84077789
  23.84077923  24.18658933  37.97621134  37.97621134  38.0399364
  38.03993641  38.0399394   40.2477893   40.2477893   40.57562747
  40.57563069  40.57563119  58.68481711  58.68482205  58.68482443
  63.6240848  111.39215709 111.3921605  111.3921609  118.37285787]
   1 ( 0.000  0.000  0.333)   [-14.82939036  -7.05265723  -0.59563125  -0.0923099    0.21408926
   0.21411445] [  1.03480953   1.07631585   1.07634517   1.26736739   1.57221047
   1.60935887   1.60936259   1.77436493   2.23090707   2.23090937
   2.41047612   2.42155233   2.42155405   2.66718494   2.96400568
   2.96400612   3.19839067   3.36106829   3.36107125   3.60803176
   3.60803226   3.7378635    3.73786467   3.75121918   3.78271678
   3.96731544   4.1637802    4.19201281   4.19201305   4.53987097
   4.53988457   4.82762537   4.93869889   4.93872184   4.98468194
   5.15095835   5.15099112   5.27677157   5.7510417    5.87046735
   6.0632246    6.06323897   6.37451362   6.3745195    6.77711322
   6.90262343   6.90262996   7.29818281   7.31863941   7.31866732
   7.77412581   7.77412683   7.91775418   8.80526115  13.18323612
  13.34961606  13.34962513  15.92907965  23.03372113  23.62215059
  23.62215564  25.86146844  37.9987811   37.99878234  38.05648493
  38.05648857  38.07819471  40.2734337   40.27343555  40.43703601
  40.43703745  40.48873977  58.16416459  58.26843397  58.26843571
  67.27223823 110.82422245 111.22576319 111.22576643 121.07325253]
   2 ( 0.000  0.000  0.667)   [-14.82939036  -7.05265723  -0.59563125  -0.0923099    0.21408926
   0.21411445] [  1.03480953   1.07631586   1.07634517   1.26736739   1.57221046
   1.6093589    1.60936259   1.77436493   2.23090711   2.23090937
   2.41047612   2.42155376   2.42155456   2.66718491   2.9640061
   2.96400707   3.19839067   3.36106865   3.3610713    3.60803187
   3.60803305   3.7378646    3.73786583   3.75121918   3.78271674
   3.96731544   4.1637802    4.19201283   4.19201331   4.53988254
   4.53988885   4.82762536   4.93871747   4.93872763   4.98468185
   5.15098646   5.15100408   5.2767715    5.7510417    5.87046726
   6.06323679   6.0632436    6.37451668   6.37452021   6.7771131
   6.9026287    6.90263204   7.29818279   7.31866315   7.3186768
   7.77412657   7.77412714   7.91775419   8.80526089  13.1832361
  13.34962429  13.34962995  15.92907963  23.03372113  23.62215216
  23.6221559   25.86146839  37.99878129  37.99878237  38.05648493
  38.05648862  38.0781947   40.27343401  40.27343559  40.43703621
  40.43703748  40.48873977  58.16416458  58.26843412  58.268437
  67.27223822 110.82422245 111.22576338 111.22576645 121.07325252]
   3 (-0.000  0.333  0.000)   [-14.82939036  -7.05265723  -0.59563125  -0.0923099    0.21408926
   0.21411445] [  1.03480953   1.07631585   1.07634517   1.26736739   1.57221047
   1.60935884   1.60936256   1.77436494   2.23090701   2.23090933
   2.41047612   2.42154984   2.42155279   2.66718497   2.9640038
   2.96400544   3.19839067   3.36106785   3.3610709    3.6080305
   3.60803174   3.73786028   3.73786341   3.75121918   3.78271682
   3.96731547   4.1637802    4.1920124    4.19201288   4.53985022
   4.53987453   4.82762532   4.9386671    4.9387059    4.98468199
   5.15090793   5.15096554   5.2767716    5.7510417    5.87046739
   6.06320278   6.06322826   6.37450951   6.37451669   6.77711328
   6.90261448   6.9026251    7.29818285   7.31859683   7.31864628
   7.77412468   7.77412615   7.91775419   8.80526125  13.18323616
  13.34959863  13.34961724  15.92907967  23.03372114  23.62214857
  23.62215419  25.86146844  37.99878088  37.99878216  38.05648487
  38.05648852  38.07819471  40.27343333  40.27343524  40.43703578
  40.43703724  40.48873978  58.16416459  58.26843219  58.26843468
  67.27223823 110.82422245 111.22576297 111.22576623 121.07325253]
   4 ( 0.000  0.333  0.333)   [-1.48294208e+01 -7.05265596e+00 -5.55324449e-01 -1.35521109e-02
  9.70337640e-02  9.70373800e-02] [  0.84713503   1.03206271   1.31778613   1.3177901    1.46783568
   1.76689201   1.94133499   2.05788503   2.0578854    2.18739125
   2.24821455   2.24821846   2.51102892   2.56331024   2.97065004
   3.09388486   3.09388578   3.25942714   3.29508721   3.30183202
   3.30183241   3.55193675   3.79733604   3.7973365    3.93016031
   4.12959494   4.34854693   4.4050166    4.405017     4.47468567
   4.6476589    4.67817653   4.79506528   4.79506634   5.0745059
   5.07450622   5.12804823   5.69033678   5.71019041   5.71019064
   6.15561862   6.23495282   6.50218004   6.50218307   7.07173171
   7.15785083   7.19884163   7.2331165    7.23311776   7.44979531
   7.77722226   7.77722247   8.01904553   8.53010823  13.42961668
  13.42961909  13.72994623  16.70141982  23.2138386   23.74623739
  23.74623994  25.82585943  37.99192534  38.00690806  38.04638337
  38.0998433   38.09984531  40.22161719  40.25636238  40.34489999
  40.34490205  40.47891496  58.35432909  58.35433132  58.53996118
  68.77663896 110.93994727 111.31207244 111.31207471 121.32045128]
   5 (-0.000  0.333  0.667)   [-14.82945147  -7.05266517  -0.46221358  -0.11800347  -0.06491231
   0.12329525] [  0.93668374   1.24596951   1.2699601    1.33851105   1.38542262
   1.62384295   1.77028525   2.02333199   2.25268532   2.28330251
   2.42802786   2.56926325   2.62209846   2.74477883   2.79007044
   2.92423866   3.03573389   3.07663802   3.22435864   3.30780835
   3.38559072   3.44552985   3.57361105   3.76406945   3.80674212
   4.00053606   4.15677073   4.29809615   4.33855737   4.35847096
   4.55026486   4.81306968   4.99211047   5.12710956   5.15252763
   5.28082234   5.38896754   5.76934999   5.81227661   5.96549043
   6.01230326   6.20918724   6.53553525   6.61868891   6.72405338
   6.94303352   6.98629208   7.19148262   7.2828287    7.60322627
   7.67822419   7.73582643   8.07891436   8.58713901  13.17538481
  13.76638551  13.98358097  16.10273933  23.05979414  23.45054934
  23.79400424  25.22956838  37.97075243  37.97903701  38.07264686
  38.07968737  38.14229091  40.2193528   40.25569806  40.31058111
  40.4143563   40.51217652  58.18505745  58.60043181  58.74643567
  67.49660958 110.81118628 111.09594057 111.35859393 120.14151951]
   6 (-0.000  0.667  0.000)   [-14.82939036  -7.05265723  -0.59563125  -0.0923099    0.21408926
   0.21411445] [  1.03480953   1.07631585   1.07634517   1.26736739   1.57221047
   1.60935887   1.60936256   1.77436493   2.23090706   2.23090933
   2.41047612   2.42155133   2.42155323   2.66718494   2.96400453
   2.96400608   3.19839067   3.36106822   3.36107092   3.60803084
   3.60803226   3.73786175   3.73786415   3.75121918   3.78271679
   3.96731547   4.1637802    4.1920125    4.19201305   4.53986237
   4.53987778   4.82762534   4.93868641   4.93871038   4.98468193
   5.15093762   5.15097737   5.27677158   5.7510417    5.87046733
   6.06321554   6.06323198   6.37451282   6.37451729   6.77711323
   6.90261994   6.90262723   7.29818285   7.31862175   7.31865415
   7.77412547   7.77412647   7.91775417   8.80526119  13.18323615
  13.34960783  13.34962088  15.92907964  23.03372114  23.62215027
  23.62215429  25.86146843  37.99878108  37.99878217  38.05648487
  38.05648857  38.07819471  40.27343366  40.27343525  40.437036
  40.43703726  40.48873978  58.16416459  58.26843252  58.26843576
  67.27223822 110.82422245 111.22576317 111.22576623 121.07325253]
   7 (-0.000  0.667  0.333)   [-14.82945147  -7.05266517  -0.46221358  -0.11800347  -0.06491231
   0.12329525] [  0.93668374   1.24596951   1.2699601    1.33851105   1.38542261
   1.62384296   1.77028525   2.02333199   2.25268532   2.28330252
   2.42802786   2.56926325   2.62209848   2.74477882   2.79007057
   2.92423866   3.03573389   3.076638     3.22435902   3.30780828
   3.38559072   3.44552984   3.57361107   3.76406973   3.8067421
   4.00053599   4.15677074   4.29809618   4.33855737   4.35847099
   4.55026487   4.81306969   4.99211055   5.12710952   5.15252956
   5.28082517   5.38896698   5.76934992   5.81227673   5.96549043
   6.0123057    6.20918711   6.5355353    6.61868931   6.72405329
   6.94303391   6.98629215   7.19148271   7.28282849   7.60322612
   7.67822405   7.7358302    8.07891463   8.58713884  13.1753848
  13.76638547  13.98358105  16.10273935  23.05979414  23.4505494
  23.79400427  25.22956837  37.97075243  37.97903702  38.07264686
  38.07968737  38.14229091  40.2193528   40.25569806  40.31058117
  40.4143563   40.51217651  58.18505745  58.6004318   58.74643568
  67.49660958 110.81118628 111.09594057 111.35859393 120.1415195 ]
   8 ( 0.000  0.667  0.667)   [-1.48294208e+01 -7.05265596e+00 -5.55324448e-01 -1.35521110e-02
  9.70337640e-02  9.70373799e-02] [  0.84713503   1.03206271   1.31778613   1.3177901    1.46783568
   1.76689201   1.94133499   2.05788503   2.0578854    2.1873912
   2.24821455   2.24821846   2.5110289    2.56331024   2.97065002
   3.09388487   3.09388579   3.25942704   3.2950872    3.30183204
   3.30183242   3.55193673   3.79733606   3.79733655   3.9301603
   4.12959494   4.34854681   4.40501664   4.40501702   4.47468567
   4.64765883   4.67817652   4.79506528   4.79506635   5.07450594
   5.07450627   5.1280482    5.69033629   5.71019044   5.7101907
   6.15561851   6.23495282   6.50218006   6.50218312   7.07173171
   7.15785077   7.19884157   7.23311655   7.23311777   7.44979495
   7.77722239   7.77722249   8.01904551   8.53010842  13.42961667
  13.42961909  13.72994625  16.70141932  23.2138386   23.7462374
  23.74623996  25.82585947  37.99192534  38.00690806  38.04638337
  38.0998433   38.09984531  40.22161719  40.25636238  40.34489999
  40.34490205  40.47891495  58.35432909  58.35433132  58.53996118
  68.77663878 110.93994727 111.31207244 111.31207471 121.32045129]
   9 ( 0.333 -0.000 -0.000)   [-14.82939036  -7.05265723  -0.59563125  -0.0923099    0.21408926
   0.21411445] [  1.03480953   1.07631586   1.07634517   1.26736739   1.57221047
   1.60935889   1.60936254   1.77436494   2.23090709   2.2309093
   2.41047612   2.42155097   2.42155367   2.66718495   2.96400397
   2.96400666   3.19839068   3.3610685    3.36107066   3.60803041
   3.60803276   3.73786099   3.73786506   3.75121918   3.78271679
   3.96731545   4.16378021   4.19201236   4.19201322   4.53985937
   4.53988173   4.82762541   4.93868279   4.93871539   4.98468204
   5.15092788   5.15098742   5.27677163   5.7510417    5.87046741
[...]
   7.75989079   7.75989112   7.99895923   8.51226249  13.46993351
  13.46993351  13.76880029  16.73826834  23.1550731   23.68763465
  23.68763471  25.77184348  38.03993254  38.05474948  38.09415471
  38.14754076  38.14754076  40.1557905   40.19061717  40.27939693
  40.27939694  40.41345653  58.40056723  58.40056723  58.58608778
  68.82021212 110.86658182 111.23872799 111.238728   121.24818267]
  13 ( 0.333  0.333  0.333)   [-14.89845422  -7.00593608  -0.60178106  -0.09767888   0.19752437
   0.19752437] [  1.04396478   1.08334073   1.08334073   1.26477895   1.57463582
   1.60895891   1.60895899   1.78370338   2.22897463   2.22897475
   2.40898555   2.42099261   2.42099755   2.66631331   2.96075634
   2.96075981   3.20107655   3.36420188   3.36420301   3.6072889
   3.60729138   3.74274334   3.74274913   3.75529408   3.77961919
   3.96739855   4.17001027   4.194866     4.19486673   4.53899897
   4.53903882   4.83159839   4.94584035   4.94590034   4.98474711
   5.15257283   5.15267262   5.2680543    5.74151732   5.86385745
   6.04945076   6.04949343   6.36397677   6.36398606   6.77040652
   6.88584381   6.88586215   7.28065161   7.29840708   7.29849169
   7.75393862   7.75394101   7.91432542   8.78369406  13.22318141
  13.38963084  13.38966376  15.96472328  22.9757112   23.56365982
  23.56366438  25.80713056  38.04670009  38.04670063  38.10429561
  38.10429576  38.12598262  40.20767372  40.20767462  40.37155495
  40.37155553  40.42323313  58.21038129  58.31466939  58.31467309
  67.31574749 110.75086673 111.15242849 111.15242904 121.00086698]
  14 ( 0.333  0.333  0.667)   [-14.89849647  -7.00594737  -0.47338945  -0.12121119  -0.07193967
   0.10901033] [  0.94283323   1.24457284   1.27516001   1.34373352   1.38700976
   1.62267023   1.77515842   2.02333996   2.2520384    2.28047151
   2.4195647    2.57715151   2.62233465   2.74584121   2.79228391
   2.92046671   3.03524169   3.07818884   3.22110209   3.31152005
   3.38967062   3.4484975    3.57264215   3.7671653    3.80850046
   3.995625     4.16020507   4.2979975    4.34838648   4.36143192
   4.54754681   4.81966435   4.99799276   5.12269348   5.15772337
   5.27931385   5.39078141   5.76115559   5.80046273   5.95257348
   6.00125407   6.19853449   6.52195961   6.6069326    6.71348728
   6.92947303   6.98239907   7.17058536   7.27128963   7.58549101
   7.66102275   7.71984141   8.06444768   8.56880912  13.21458712
  13.80648593  14.02364267  16.13932555  23.00114663  23.3919969
  23.73620174  25.17478804  38.01869219  38.02697975  38.12058139
  38.12751102  38.18988369  40.15358454  40.1900455   40.24480702
  40.34883439  40.44673437  58.23119555  58.64664495  58.79263653
  67.54027631 110.73780956 111.02259718 111.28532178 120.06902388]
  15 ( 0.333  0.667 -0.000)   [-14.89849647  -7.00594737  -0.47338945  -0.1212112   -0.07193967
   0.10901034] [  0.94283323   1.24457282   1.27516002   1.34373351   1.38700977
   1.62267023   1.77515842   2.02333997   2.2520384    2.28047151
   2.41956467   2.5771515    2.62233468   2.74584121   2.79228405
   2.92046671   3.0352417    3.07818883   3.22110286   3.31152012
   3.38967062   3.44849749   3.57264213   3.76716566   3.80850044
   3.9956249    4.1602052    4.29799749   4.34838648   4.36143181
   4.54754685   4.81966432   4.99799297   5.12269356   5.15772664
   5.2793193    5.39078038   5.76115572   5.80046283   5.95257354
   6.00125853   6.19853444   6.52195965   6.60693366   6.71348717
   6.92947364   6.98239907   7.17058546   7.27128949   7.58549086
   7.66102217   7.71984948   8.06444799   8.56880915  13.21458713
  13.8064859   14.02364312  16.13932566  23.00114664  23.39199703
  23.73620174  25.17478805  38.01869219  38.02697976  38.1205814
  38.12751101  38.18988369  40.15358454  40.1900455   40.24480713
  40.34883439  40.44673437  58.23119555  58.64664494  58.79263657
  67.54027634 110.73780956 111.02259719 111.28532178 120.06902388]
  16 ( 0.333  0.667  0.333)   [-14.89849647  -7.00594737  -0.47338945  -0.12121119  -0.07193967
   0.10901033] [  0.94283323   1.24457284   1.27516001   1.34373352   1.38700976
   1.62267024   1.77515842   2.02333996   2.2520384    2.28047151
   2.4195647    2.57715151   2.62233471   2.7458412    2.7922842
   2.92046671   3.03524172   3.0781888    3.22110325   3.31151998
   3.38967062   3.44849749   3.57264214   3.76716607   3.80850044
   3.99562493   4.16020506   4.29799751   4.34838648   4.36143199
   4.54754683   4.8196643    4.99799313   5.12269314   5.15772815
   5.27932191   5.39078091   5.76115524   5.80046295   5.95257347
   6.00126071   6.19853431   6.52195954   6.60693411   6.71348722
   6.92947409   6.98239908   7.17058555   7.2712893    7.58549091
   7.66102276   7.71985306   8.06444751   8.56880847  13.2145871
  13.8064859   14.02364327  16.13932548  23.00114663  23.39199708
  23.73620175  25.17478804  38.01869219  38.02697977  38.1205814
  38.12751102  38.18988369  40.15358455  40.1900455   40.24480718
  40.34883439  40.44673436  58.23119555  58.64664494  58.79263658
  67.54027629 110.73780956 111.0225972  111.28532178 120.06902388]
  17 ( 0.333  0.667  0.667)   [-14.89849647  -7.00594737  -0.47338945  -0.12121119  -0.07193967
   0.10901033] [  0.94283323   1.24457284   1.27516001   1.34373352   1.38700976
   1.62267023   1.77515842   2.02333996   2.2520384    2.28047151
   2.41956469   2.57715151   2.6223346    2.74584121   2.79228372
   2.92046671   3.03524166   3.07818882   3.22110132   3.31152001
   3.38967062   3.44849749   3.57264217   3.7671648    3.80850045
   3.99562496   4.16020509   4.29799748   4.34838648   4.36143188
   4.54754674   4.81966432   4.99799252   5.1226935    5.1577204
   5.2793084    5.39078078   5.76115568   5.8004626    5.95257349
   6.00124973   6.19853445   6.52195957   6.60693157   6.71348715
   6.92947234   6.98239907   7.17058525   7.27128938   7.58549077
   7.66102217   7.71983358   8.06444782   8.56880912  13.2145871
  13.80648592  14.02364224  16.13932568  23.00114663  23.39199678
  23.73620168  25.17478804  38.01869219  38.02697973  38.12058139
  38.12751102  38.18988369  40.15358453  40.19004549  40.24480691
  40.3488344   40.44673437  58.23119555  58.64664495  58.79263648
  67.54027634 110.73780956 111.02259717 111.28532177 120.06902388]
  18 ( 0.667 -0.000 -0.000)   [-14.89845422  -7.00593608  -0.60178106  -0.09767888   0.19752437
   0.19752439] [  1.04396478   1.08334073   1.08334073   1.26477894   1.57463582
   1.6089589    1.60895893   1.78370339   2.22897461   2.22897466
   2.40898555   2.42099206   2.42099405   2.66631333   2.9607559
   2.96075732   3.20107656   3.36420175   3.36420224   3.60728867
   3.6072896    3.74274277   3.74274507   3.755294     3.77961928
   3.96739856   4.1700103    4.19486601   4.19486634   4.53899497
   4.53901094   4.83159842   4.94583449   4.94585874   4.9847473
   5.15255954   5.15259991   5.26805449   5.74151678   5.86385759
   6.04944639   6.04946336   6.3639754    6.36397912   6.77040673
   6.88584129   6.88584858   7.28065158   7.2983977    7.29843159
   7.75393817   7.75393915   7.91432555   8.78369441  13.22318145
  13.3896274   13.38964052  15.96472338  22.97571121  23.5636593
  23.56366117  25.80713062  38.04670003  38.04670024  38.1042956
  38.10429565  38.12598262  40.20767363  40.20767399  40.37155487
  40.3715551   40.42323314  58.21038129  58.31466901  58.31467049
  67.31574752 110.75086674 111.15242842 111.15242866 121.000867  ]
  19 ( 0.667 -0.000  0.333)   [-14.89849647  -7.00594737  -0.47338945  -0.1212112   -0.07193967
   0.10901034] [  0.94283323   1.24457282   1.27516002   1.34373351   1.38700977
   1.62267024   1.77515842   2.02333998   2.2520384    2.28047151
   2.41956467   2.5771515    2.62233477   2.7458412    2.79228442
   2.92046672   3.03524173   3.07818878   3.22110424   3.31152004
   3.38967063   3.44849749   3.57264211   3.76716659   3.80850043
   3.99562482   4.16020517   4.29799748   4.34838647   4.36143189
   4.54754681   4.81966428   4.9979934    5.1226932    5.15773263
   5.27932873   5.39077993   5.7611554    5.80046312   5.95257353
   6.00126655   6.19853426   6.52195956   6.60693539   6.71348708
   6.92947494   6.98239905   7.1705857    7.27128917   7.58549073
   7.66102213   7.71986321   8.0644476    8.56880857  13.21458711
  13.80648587  14.02364376  16.13932556  23.00114663  23.39199724
  23.73620172  25.17478805  38.01869219  38.02697978  38.12058141
  38.12751101  38.18988369  40.15358456  40.1900455   40.24480732
  40.34883439  40.44673436  58.23119555  58.64664494  58.79263663
  67.54027631 110.73780956 111.02259721 111.28532178 120.06902388]
  20 ( 0.667  0.000  0.667)   [-14.8984754   -7.00593692  -0.56240611  -0.02107476   0.08386725
   0.08386726] [  0.85539752   1.04023359   1.32083368   1.32083368   1.46066103
   1.77948541   1.94041612   2.05781848   2.0578185    2.18472854
   2.24692576   2.24692577   2.50851152   2.56418369   2.97320301
   3.09175998   3.09176003   3.25794883   3.29976474   3.30284974
   3.30284978   3.55198002   3.79988416   3.7998843    3.92883916
   4.13101019   4.35167967   4.40773532   4.40773567   4.47798168
   4.64825789   4.68176772   4.79911908   4.79911911   5.07888154
   5.07888164   5.13181186   5.68969511   5.69531092   5.69531103
   6.13644882   6.22314084   6.48999471   6.48999477   7.05141243
   7.14770703   7.18027126   7.21703689   7.21703693   7.45238939
   7.75989073   7.75989091   7.99895931   8.51226273  13.46993351
  13.46993351  13.76880027  16.73826915  23.15507311  23.68763465
  23.68763467  25.77184353  38.03993254  38.05474948  38.09415471
  38.14754076  38.14754076  40.1557905   40.19061718  40.27939693
  40.27939694  40.41345653  58.40056723  58.40056723  58.58608777
  68.82021241 110.86658182 111.23872799 111.238728   121.24818269]
  21 ( 0.667  0.333 -0.000)   [-14.89849647  -7.00594737  -0.47338945  -0.1212112   -0.07193967
   0.10901034] [  0.94283323   1.24457282   1.27516002   1.34373351   1.38700977
   1.62267023   1.77515842   2.02333998   2.2520384    2.28047151
   2.41956468   2.5771515    2.62233463   2.7458412    2.79228385
   2.92046671   3.03524167   3.0781888    3.22110194   3.31152004
   3.38967062   3.44849749   3.57264214   3.76716508   3.80850043
   3.99562484   4.1602052    4.2979975    4.34838647   4.36143176
   4.54754678   4.81966433   4.99799267   5.12269346   5.15772348
   5.27931273   5.39077971   5.76115562   5.8004627    5.95257354
   6.00125359   6.19853431   6.52195963   6.60693236   6.71348701
   6.92947286   6.98239908   7.17058533   7.27128928   7.58549055
   7.66102187   7.71984021   8.06444789   8.56880885  13.2145871
  13.80648585  14.02364252  16.13932561  23.00114664  23.39199689
  23.73620171  25.17478805  38.01869219  38.02697974  38.1205814
  38.12751101  38.18988369  40.15358453  40.1900455   40.244807
  40.34883439  40.44673436  58.23119555  58.64664494  58.79263651
  67.54027632 110.73780956 111.02259718 111.28532178 120.06902388]
  22 ( 0.667  0.333  0.333)   [-14.89849647  -7.00594737  -0.47338945  -0.12121119  -0.07193967
   0.10901033] [  0.94283323   1.24457284   1.27516001   1.34373352   1.38700976
   1.62267023   1.77515842   2.02333996   2.2520384    2.28047151
   2.41956469   2.57715151   2.62233457   2.7458412    2.79228361
   2.92046671   3.03524165   3.07818882   3.22110083   3.31152001
   3.38967062   3.44849749   3.57264215   3.76716449   3.80850045
   3.99562499   4.16020507   4.29799749   4.34838647   4.36143185
   4.54754678   4.81966433   4.99799236   5.12269337   5.15771849
   5.27930498   5.39078079   5.76115553   5.80046252   5.95257347
   6.001247     6.19853443   6.52195958   6.60693091   6.71348721
   6.9294719    6.98239908   7.17058517   7.27128952   7.58549085
   7.6610224    7.71982866   8.0644476    8.56880879  13.21458711
  13.80648591  14.02364195  16.13932555  23.00114663  23.3919967
  23.73620172  25.17478804  38.01869219  38.02697972  38.12058138
  38.12751102  38.18988369  40.15358453  40.19004549  40.24480684
  40.34883439  40.44673436  58.23119555  58.64664495  58.79263646
  67.54027632 110.73780956 111.02259716 111.28532178 120.06902388]
  23 ( 0.667  0.333  0.667)   [-14.89849647  -7.00594737  -0.47338945  -0.12121119  -0.07193967
   0.10901033] [  0.94283323   1.24457284   1.27516001   1.34373352   1.38700976
   1.62267024   1.77515842   2.02333996   2.2520384    2.28047151
   2.41956469   2.57715151   2.62233471   2.7458412    2.79228423
   2.92046671   3.03524172   3.07818879   3.22110328   3.31151996
   3.38967062   3.44849748   3.57264214   3.76716611   3.80850044
   3.99562489   4.16020506   4.2979975    4.34838648   4.361432
   4.54754683   4.81966427   4.99799314   5.12269319   5.15772863
   5.27932199   5.39078054   5.76115538   5.80046298   5.95257347
   6.00126106   6.19853427   6.52195956   6.60693408   6.71348721
   6.92947416   6.9823991    7.17058557   7.27128911   7.58549087
   7.66102244   7.71985333   8.06444779   8.56880861  13.21458711
  13.80648591  14.02364321  16.13932562  23.00114663  23.39199709
  23.73620174  25.17478803  38.01869218  38.02697977  38.1205814
  38.12751102  38.18988369  40.15358455  40.19004549  40.24480719
  40.34883439  40.44673436  58.23119555  58.64664494  58.79263657
  67.54027632 110.73780956 111.0225972  111.28532178 120.06902388]
  24 ( 0.667  0.667  0.000)   [-14.8984754   -7.00593692  -0.56240611  -0.02107476   0.08386725
   0.08386726] [  0.85539752   1.04023359   1.32083368   1.32083368   1.46066102
   1.77948541   1.94041612   2.05781849   2.0578185    2.18472832
   2.24692576   2.24692577   2.50851148   2.56418369   2.97320296
   3.09175999   3.09176005   3.25794836   3.29976473   3.30284976
   3.3028498    3.55197995   3.7998842    3.79988439   3.92883913
   4.13101019   4.35167905   4.40773536   4.40773572   4.47798168
   4.64825781   4.68176772   4.79911909   4.79911913   5.07888163
   5.07888181   5.13181159   5.68969359   5.69531098   5.69531116
   6.136448     6.22314084   6.48999475   6.48999486   7.05141243
   7.14770679   7.18027111   7.21703694   7.21703707   7.45238781
   7.75989085   7.75989114   7.99895931   8.51226306  13.46993351
  13.46993351  13.76880028  16.73826715  23.15507309  23.68763466
  23.68763471  25.77184358  38.03993254  38.05474948  38.09415471
  38.14754076  38.14754076  40.1557905   40.19061717  40.27939693
  40.27939694  40.41345653  58.40056723  58.40056723  58.58608777
  68.82021169 110.86658182 111.23872799 111.238728   121.2481827 ]
  25 ( 0.667  0.667  0.333)   [-14.89849647  -7.00594737  -0.47338945  -0.12121119  -0.07193967
   0.10901033] [  0.94283323   1.24457284   1.27516001   1.34373352   1.38700976
   1.62267024   1.77515842   2.02333996   2.2520384    2.28047151
   2.4195647    2.57715151   2.6223347    2.7458412    2.79228415
   2.92046671   3.03524171   3.07818881   3.22110304   3.31151999
   3.38967062   3.44849748   3.57264217   3.76716593   3.80850045
   3.99562492   4.16020508   4.29799751   4.34838648   4.36143198
   4.54754684   4.81966433   4.99799307   5.12269347   5.15772727
   5.27932039   5.39078067   5.76115565   5.80046291   5.95257347
   6.00125948   6.19853436   6.52195966   6.60693383   6.71348725
   6.9294739    6.98239913   7.17058552   7.2712893    7.58549092
   7.66102242   7.71985087   8.0644481    8.56880904  13.21458712
  13.80648593  14.02364315  16.13932569  23.00114663  23.39199705
  23.73620175  25.17478804  38.01869219  38.02697976  38.1205814
  38.12751102  38.1898837   40.15358455  40.19004549  40.24480715
  40.3488344   40.44673437  58.23119555  58.64664495  58.79263657
  67.54027634 110.73780956 111.0225972  111.28532178 120.06902388]
  26 ( 0.667  0.667  0.667)   [-14.89845422  -7.00593608  -0.60178106  -0.09767888   0.19752437
   0.19752437] [  1.04396478   1.08334073   1.08334073   1.26477895   1.57463582
   1.60895893   1.60895897   1.78370338   2.22897467   2.22897473
   2.40898555   2.42099399   2.42099655   2.66631335   2.96075732
   2.9607591    3.20107656   3.36420221   3.36420277   3.60728958
   3.60729087   3.74274494   3.74274795   3.75529408   3.77961924
   3.96739857   4.17001027   4.19486619   4.19486659   4.5390101
   4.5390306    4.83159841   4.94585737   4.94588788   4.98474735
   5.15260052   5.15265268   5.2680544    5.74151732   5.8638576
   6.0494626    6.04948471   6.36397927   6.36398427   6.77040673
   6.88584877   6.88585859   7.28065162   7.29843061   7.29847445
   7.75393926   7.75394055   7.91432548   8.78369438  13.22318146
  13.38963998  13.38965704  15.96472339  22.9757112   23.56366111
  23.56366343  25.80713062  38.04670024  38.04670052  38.10429565
  38.10429573  38.12598262  40.20767397  40.20767443  40.37155511
  40.37155542  40.42323313  58.2103813   58.31467042  58.31467233
  67.31574753 110.75086673 111.15242865 111.15242893 121.000867  ]
    CPU time for get_k_kpts: make_kpt ki>=kj (0,*)      1.86 sec, wall time      0.07 sec
    CPU time for get_k_kpts: make_kpt ki>=kj (1,*)      7.09 sec, wall time      0.22 sec
    CPU time for get_k_kpts: make_kpt ki>=kj (2,*)      9.35 sec, wall time      0.30 sec
    CPU time for get_k_kpts: make_kpt ki>=kj (3,*)      9.39 sec, wall time      0.30 sec
    CPU time for get_k_kpts: make_kpt ki>=kj (4,*)     12.98 sec, wall time      0.41 sec
    CPU time for get_k_kpts: make_kpt ki>=kj (5,*)     16.17 sec, wall time      0.52 sec
    CPU time for get_k_kpts: make_kpt ki>=kj (6,*)     20.20 sec, wall time      0.64 sec
    CPU time for get_k_kpts: make_kpt ki>=kj (7,*)     21.65 sec, wall time      0.70 sec
    CPU time for get_k_kpts: make_kpt ki>=kj (8,*)     23.34 sec, wall time      0.74 sec
    CPU time for get_k_kpts: make_kpt ki>=kj (9,*)     27.80 sec, wall time      0.87 sec
    CPU time for get_k_kpts: make_kpt ki>=kj (10,*)     27.42 sec, wall time      0.87 sec
    CPU time for get_k_kpts: make_kpt ki>=kj (11,*)     28.20 sec, wall time      0.89 sec
    CPU time for get_k_kpts: make_kpt ki>=kj (12,*)     31.13 sec, wall time      0.98 sec
    CPU time for get_k_kpts: make_kpt ki>=kj (13,*)     35.16 sec, wall time      1.13 sec
    CPU time for get_k_kpts: make_kpt ki>=kj (14,*)     42.85 sec, wall time      1.35 sec
    CPU time for get_k_kpts: make_kpt ki>=kj (15,*)     44.34 sec, wall time      1.39 sec
    CPU time for get_k_kpts: make_kpt ki>=kj (16,*)     47.84 sec, wall time      1.50 sec
    CPU time for get_k_kpts: make_kpt ki>=kj (17,*)     47.36 sec, wall time      1.50 sec
    CPU time for get_k_kpts: make_kpt ki>=kj (18,*)     52.50 sec, wall time      1.66 sec
    CPU time for get_k_kpts: make_kpt ki>=kj (19,*)     56.78 sec, wall time      1.79 sec
    CPU time for get_k_kpts: make_kpt ki>=kj (20,*)     59.85 sec, wall time      1.88 sec
    CPU time for get_k_kpts: make_kpt ki>=kj (21,*)     52.32 sec, wall time      1.65 sec
    CPU time for get_k_kpts: make_kpt ki>=kj (22,*)     57.29 sec, wall time      1.84 sec
    CPU time for get_k_kpts: make_kpt ki>=kj (23,*)     63.78 sec, wall time      2.02 sec
    CPU time for get_k_kpts: make_kpt ki>=kj (24,*)     68.33 sec, wall time      2.15 sec
    CPU time for get_k_kpts: make_kpt ki>=kj (25,*)     67.23 sec, wall time      2.11 sec
    CPU time for get_k_kpts: make_kpt ki>=kj (26,*)     66.85 sec, wall time      2.11 sec
Monkhorst pack size [3 3 3] ew_eta 2.0415012507608057 ew_cut 3.446555143149695
Ewald components = 0, -1.15196888453017, 1.04011066863786
    CPU time for get_j pass 1     33.79 sec, wall time      1.09 sec
    CPU time for get_j pass 2      4.83 sec, wall time      0.73 sec
    CPU time for vj and vk   1042.61 sec, wall time     33.65 sec
Ewald components = 2.22177160975447e-132, -245.992357858762, 217.051170209755
E1 = (-56.0216788446384-4.807531615151583e-14j)  E_coul = (5.679099555336411+4.89444099271554e-14j)
Extra cycle  E= -79.2837669383088  delta_E= -5.37e-12  |g|= 5.87e-06  |ddm|= 0.0575
    CPU time for scf_cycle  89298.05 sec, wall time   3124.37 sec
    CPU time for SCF  89298.09 sec, wall time   3124.41 sec
converged SCF energy = -79.2837669383088
