#INFO: **** input file is /burg/ccce/users/eav2136/projects/core_level_spectroscopy/01_peommp2_cbe/meanfield.py ****
#!/usr/bin/env python
import json
from pyscf.pbc import gto, scf
from pyscf.pbc.tools import lattice, pyscf_ase
from pyscf.pbc.scf import chkfile
from fileutils import load, dump
import sys

material = load("data/{}".format(sys.argv[1]))
# Create Cell
cell = gto.Cell()
ase_atom = lattice.get_ase_atom(material["formula"])
cell.atom = pyscf_ase.ase_atoms_to_pyscf(ase_atom)
cell.a = ase_atom.cell[:]
cell.unit = "B"
cell.basis = material["basis"]
cell.exp_to_discard = material["exp_to_discard"]
cell.verbose = 7
cell.build()

# Mean Field
kdensity = material["kdensity"]
kmesh = [kdensity, kdensity, kdensity]
kpts = cell.make_kpts(kmesh, scaled_center=material["vb_scaled_center"])
mymf = scf.KRHF(cell, kpts=kpts, exxdiv="ewald")
mymf.chkfile = "data/{}".format(material["chk"])
mymf = mymf.density_fit()
mymf.with_df._cderi_to_save = "data/{}".format(material["cderi"])
ekrhf = mymf.kernel()
convergence = mymf.converged
mymf_data = dict([("ekrhf", float(ekrhf)),
                  ("convergence", bool(convergence))])
dump(mymf_data, "data/{}".format(material["ekrhf"]))
#INFO: ******************** input file end ********************


System: uname_result(system='Linux', node='g150', release='4.18.0-193.el8.x86_64', version='#1 SMP Fri Mar 27 14:35:58 UTC 2020', machine='x86_64')  Threads 32
Python 3.10.12 (main, Jul 29 2023, 11:27:27) [GCC 13.2.0]
numpy 1.25.1  scipy 1.10.1
Date: Fri Jan 26 17:43:28 2024
PySCF version 2.0.1
PySCF path  /burg/berkelbach/users/eav2136/builds/pyscf/projected-cvs/pyscf
GIT ORIG_HEAD 0bfbc692adf3ea63b8a509210433219cd1c472a2
GIT HEAD (branch projected-cvs) e14caaa2dddc538b9be2d86f01e5b456fc92da36

[ENV] PYSCF_TMPDIR /burg/ccce/users/eav2136/projects/core_level_spectroscopy/01_peommp2_cbe/tmp
[ENV] PYSCF_MAX_MEMORY 700000
[CONFIG] DEBUG = False
[CONFIG] MAX_MEMORY = 700000
[CONFIG] TMPDIR = /burg/ccce/users/eav2136/projects/core_level_spectroscopy/01_peommp2_cbe/tmp
[CONFIG] UNIT = angstrom
[CONFIG] VERBOSE = 3
[CONFIG] conf_file = None
[INPUT] verbose = 7
[INPUT] max_memory = 700000 
[INPUT] num. atoms = 2
[INPUT] num. electrons = 12
[INPUT] charge = 0
[INPUT] spin (= nelec alpha-beta = 2S) = 0
[INPUT] symmetry False subgroup None
[INPUT] Mole.unit = B
[INPUT]  1 B      0.000000000000   0.000000000000   0.000000000000 AA    0.000000000000   0.000000000000   0.000000000000 Bohr
[INPUT]  2 N      0.903749935167   0.903749935167   0.903749935167 AA    1.707839862559   1.707839862559   1.707839862559 Bohr
[INPUT] ---------------- BASIS SET ---------------- 
[INPUT] l, kappa, [nprim/nctr], expnt,             c_1 c_2 ...
[INPUT] N
[INPUT] 0    0    [8    /2   ]  11420             0.000523 -0.000115
                                1712              0.004045 -0.000895
                                389.3             0.020775 -0.004624
                                110               0.080727 -0.018528
                                35.57             0.233074 -0.057339
                                12.54             0.433501 -0.132076
                                4.644             0.347472 -0.17251
                                0.5118            -0.008508 0.599944
[INPUT] 0    0    [1    /1   ]  1.293                1
[INPUT] 0    0    [1    /1   ]  0.1787               1
[INPUT] 1    0    [3    /1   ]  26.63             0.01467
                                5.948             0.091764
                                1.742             0.298683
[INPUT] 1    0    [1    /1   ]  0.555                1
[INPUT] 1    0    [1    /1   ]  0.1725               1
[INPUT] 2    0    [1    /1   ]  1.654                1
[INPUT] 2    0    [1    /1   ]  0.469                1
[INPUT] 3    0    [1    /1   ]  1.093                1
[INPUT] 0    0    [1    /1   ]  5.952                1
[INPUT] 0    0    [1    /1   ]  16.201               1
[INPUT] 1    0    [1    /1   ]  11.871               1
[INPUT] 1    0    [1    /1   ]  44.849               1
[INPUT] 2    0    [1    /1   ]  14.2                 1
[INPUT] B
[INPUT] 0    0    [8    /2   ]  5473              0.000555 -0.000112
                                820.9             0.004291 -0.000868
                                186.8             0.021949 -0.004484
                                52.83             0.084441 -0.017683
                                17.08             0.238557 -0.053639
                                5.999             0.435072 -0.119005
                                2.208             0.341955 -0.165824
                                0.2415            -0.009545 0.595981
[INPUT] 0    0    [1    /1   ]  0.5879               1
[INPUT] 0    0    [1    /1   ]  0.0861               1
[INPUT] 1    0    [3    /1   ]  12.05             0.013118
                                2.613             0.079896
                                0.7475            0.277275
[INPUT] 1    0    [1    /1   ]  0.2385               1
[INPUT] 1    0    [1    /1   ]  0.07698              1
[INPUT] 2    0    [1    /1   ]  0.661                1
[INPUT] 2    0    [1    /1   ]  0.199                1
[INPUT] 3    0    [1    /1   ]  0.49                 1
[INPUT] 0    0    [1    /1   ]  2.94                 1
[INPUT] 0    0    [1    /1   ]  8.311                1
[INPUT] 1    0    [1    /1   ]  6.016                1
[INPUT] 1    0    [1    /1   ]  22.891               1
[INPUT] 2    0    [1    /1   ]  13.015               1

Ewald components = 2.22177160975447e-132, -245.992357858762, 217.051170209755
nuclear repulsion = -28.9411876490068
number of shells = 28
number of NR pGTOs = 110
number of NR cGTOs = 86
basis = ccpcvtz
ecp = {}
bas 0, expnt(s) = [5.473e+03 8.209e+02 1.868e+02 5.283e+01 1.708e+01 5.999e+00 2.208e+00
 2.415e-01]
bas 1, expnt(s) = [0.5879]
bas 2, expnt(s) = [0.0861]
bas 3, expnt(s) = [12.05    2.613   0.7475]
bas 4, expnt(s) = [0.2385]
bas 5, expnt(s) = [0.07698]
bas 6, expnt(s) = [0.661]
bas 7, expnt(s) = [0.199]
bas 8, expnt(s) = [0.49]
bas 9, expnt(s) = [2.94]
bas 10, expnt(s) = [8.311]
bas 11, expnt(s) = [6.016]
bas 12, expnt(s) = [22.891]
bas 13, expnt(s) = [13.015]
bas 14, expnt(s) = [1.142e+04 1.712e+03 3.893e+02 1.100e+02 3.557e+01 1.254e+01 4.644e+00
 5.118e-01]
bas 15, expnt(s) = [1.293]
bas 16, expnt(s) = [0.1787]
bas 17, expnt(s) = [26.63   5.948  1.742]
bas 18, expnt(s) = [0.555]
bas 19, expnt(s) = [0.1725]
bas 20, expnt(s) = [1.654]
bas 21, expnt(s) = [0.469]
bas 22, expnt(s) = [1.093]
bas 23, expnt(s) = [5.952]
bas 24, expnt(s) = [16.201]
bas 25, expnt(s) = [11.871]
bas 26, expnt(s) = [44.849]
bas 27, expnt(s) = [14.2]
CPU time:         1.09
lattice vectors  a1 [0.000000000, 3.415679725, 3.415679725]
                 a2 [3.415679725, 0.000000000, 3.415679725]
                 a3 [3.415679725, 3.415679725, 0.000000000]
dimension = 3
low_dim_ft_type = None
Cell volume = 79.7006
rcut = 27.881052611759404 (nimgs = [8 8 8])
lattice sum = 2251 cells
precision = 1e-08
pseudo = None
ke_cutoff = 149320.2665776781
    = [687 687 687] mesh (324242703 PWs)


******** <class 'pyscf.pbc.scf.khf.KRHF'> ********
method = KRHF-KSCF-RHF-SCF-RHF
initial guess = minao
damping factor = 0
level_shift factor = 0
DIIS = <class 'pyscf.scf.diis.CDIIS'>
diis_start_cycle = 1
diis_space = 8
SCF conv_tol = 1e-07
SCF conv_tol_grad = None
SCF max_cycles = 50
direct_scf = True
direct_scf_tol = 1e-13
chkfile to save SCF result = data/bn_ccpcvtz_k4_N_1s_nvir_act30.chk
max_memory 700000 MB (current use 89 MB)


******** PBC SCF flags ********
N kpts = 64
kpts = [[ 0.00000000e+00  0.00000000e+00  0.00000000e+00]
 [ 2.29939054e-01  2.29939054e-01 -2.29939054e-01]
 [ 4.59878107e-01  4.59878107e-01 -4.59878107e-01]
 [ 6.89817161e-01  6.89817161e-01 -6.89817161e-01]
 [ 2.29939054e-01 -2.29939054e-01  2.29939054e-01]
 [ 4.59878107e-01  0.00000000e+00  0.00000000e+00]
 [ 6.89817161e-01  2.29939054e-01 -2.29939054e-01]
 [ 9.19756214e-01  4.59878107e-01 -4.59878107e-01]
 [ 4.59878107e-01 -4.59878107e-01  4.59878107e-01]
 [ 6.89817161e-01 -2.29939054e-01  2.29939054e-01]
 [ 9.19756214e-01  0.00000000e+00  0.00000000e+00]
 [ 1.14969527e+00  2.29939054e-01 -2.29939054e-01]
 [ 6.89817161e-01 -6.89817161e-01  6.89817161e-01]
 [ 9.19756214e-01 -4.59878107e-01  4.59878107e-01]
 [ 1.14969527e+00 -2.29939054e-01  2.29939054e-01]
 [ 1.37963432e+00  2.77555756e-17 -2.77555756e-17]
 [-2.29939054e-01  2.29939054e-01  2.29939054e-01]
 [ 0.00000000e+00  4.59878107e-01  0.00000000e+00]
 [ 2.29939054e-01  6.89817161e-01 -2.29939054e-01]
 [ 4.59878107e-01  9.19756214e-01 -4.59878107e-01]
 [ 0.00000000e+00  0.00000000e+00  4.59878107e-01]
 [ 2.29939054e-01  2.29939054e-01  2.29939054e-01]
 [ 4.59878107e-01  4.59878107e-01  0.00000000e+00]
 [ 6.89817161e-01  6.89817161e-01 -2.29939054e-01]
 [ 2.29939054e-01 -2.29939054e-01  6.89817161e-01]
 [ 4.59878107e-01  0.00000000e+00  4.59878107e-01]
 [ 6.89817161e-01  2.29939054e-01  2.29939054e-01]
 [ 9.19756214e-01  4.59878107e-01 -2.77555756e-17]
 [ 4.59878107e-01 -4.59878107e-01  9.19756214e-01]
 [ 6.89817161e-01 -2.29939054e-01  6.89817161e-01]
 [ 9.19756214e-01  0.00000000e+00  4.59878107e-01]
 [ 1.14969527e+00  2.29939054e-01  2.29939054e-01]
 [-4.59878107e-01  4.59878107e-01  4.59878107e-01]
 [-2.29939054e-01  6.89817161e-01  2.29939054e-01]
 [ 0.00000000e+00  9.19756214e-01  0.00000000e+00]
 [ 2.29939054e-01  1.14969527e+00 -2.29939054e-01]
 [-2.29939054e-01  2.29939054e-01  6.89817161e-01]
 [ 0.00000000e+00  4.59878107e-01  4.59878107e-01]
 [ 2.29939054e-01  6.89817161e-01  2.29939054e-01]
 [ 4.59878107e-01  9.19756214e-01 -2.77555756e-17]
 [ 0.00000000e+00  0.00000000e+00  9.19756214e-01]
 [ 2.29939054e-01  2.29939054e-01  6.89817161e-01]
 [ 4.59878107e-01  4.59878107e-01  4.59878107e-01]
 [ 6.89817161e-01  6.89817161e-01  2.29939054e-01]
 [ 2.29939054e-01 -2.29939054e-01  1.14969527e+00]
 [ 4.59878107e-01  0.00000000e+00  9.19756214e-01]
 [ 6.89817161e-01  2.29939054e-01  6.89817161e-01]
 [ 9.19756214e-01  4.59878107e-01  4.59878107e-01]
 [-6.89817161e-01  6.89817161e-01  6.89817161e-01]
 [-4.59878107e-01  9.19756214e-01  4.59878107e-01]
 [-2.29939054e-01  1.14969527e+00  2.29939054e-01]
 [ 2.77555756e-17  1.37963432e+00 -2.77555756e-17]
 [-4.59878107e-01  4.59878107e-01  9.19756214e-01]
 [-2.29939054e-01  6.89817161e-01  6.89817161e-01]
 [ 5.55111512e-17  9.19756214e-01  4.59878107e-01]
 [ 2.29939054e-01  1.14969527e+00  2.29939054e-01]
 [-2.29939054e-01  2.29939054e-01  1.14969527e+00]
 [ 2.77555756e-17  4.59878107e-01  9.19756214e-01]
 [ 2.29939054e-01  6.89817161e-01  6.89817161e-01]
 [ 4.59878107e-01  9.19756214e-01  4.59878107e-01]
 [ 2.77555756e-17 -2.77555756e-17  1.37963432e+00]
 [ 2.29939054e-01  2.29939054e-01  1.14969527e+00]
 [ 4.59878107e-01  4.59878107e-01  9.19756214e-01]
 [ 6.89817161e-01  6.89817161e-01  6.89817161e-01]]
Exchange divergence treatment (exxdiv) = ewald
Monkhorst pack size [4 4 4] ew_eta 1.5476658029379562 ew_cut 4.544470118544479
Ewald components = 0, -0.873305490231665, 0.789411828243223
    madelung (= occupied orbital energy shift) = 0.16778732397688323
    Total energy shift due to Ewald probe charge = -1/2 * Nelec*madelung = -1.00672394386
DF object = <pyscf.pbc.df.df.GDF object at 0x155553f47fd0>
Set gradient conv threshold to 0.000316228
Big error detected in the electron number of initial guess density matrix (Ne/cell = 11.9994)!
  This can cause huge error in Fock matrix and lead to instability in SCF for low-dimensional systems.
  DM is normalized wrt the number of electrons 12.0
    CPU time for vnuc pass1: analytic int   3125.37 sec, wall time    102.40 sec
    CPU time for contracting Vnuc [0:216]     42.28 sec, wall time      1.36 sec
    CPU time for contracting Vnuc     42.29 sec, wall time      1.36 sec
    CPU time for get_nuc   3167.88 sec, wall time    103.77 sec


******** <class 'pyscf.pbc.df.df.GDF'> ********
mesh = [7, 7, 7] (343 PWs)
auxbasis = None
eta = 0.2
exp_to_discard = None
_cderi_to_save = data/bn_ccpcvtz_k4_N_1s_nvir_act30_cderi.h5
len(kpts) = 64
    kpts = [[ 0.00000000e+00  0.00000000e+00  0.00000000e+00]
 [ 2.29939054e-01  2.29939054e-01 -2.29939054e-01]
 [ 4.59878107e-01  4.59878107e-01 -4.59878107e-01]
 [ 6.89817161e-01  6.89817161e-01 -6.89817161e-01]
 [ 2.29939054e-01 -2.29939054e-01  2.29939054e-01]
 [ 4.59878107e-01  0.00000000e+00  0.00000000e+00]
 [ 6.89817161e-01  2.29939054e-01 -2.29939054e-01]
 [ 9.19756214e-01  4.59878107e-01 -4.59878107e-01]
 [ 4.59878107e-01 -4.59878107e-01  4.59878107e-01]
 [ 6.89817161e-01 -2.29939054e-01  2.29939054e-01]
 [ 9.19756214e-01  0.00000000e+00  0.00000000e+00]
 [ 1.14969527e+00  2.29939054e-01 -2.29939054e-01]
 [ 6.89817161e-01 -6.89817161e-01  6.89817161e-01]
 [ 9.19756214e-01 -4.59878107e-01  4.59878107e-01]
 [ 1.14969527e+00 -2.29939054e-01  2.29939054e-01]
 [ 1.37963432e+00  2.77555756e-17 -2.77555756e-17]
 [-2.29939054e-01  2.29939054e-01  2.29939054e-01]
 [ 0.00000000e+00  4.59878107e-01  0.00000000e+00]
 [ 2.29939054e-01  6.89817161e-01 -2.29939054e-01]
 [ 4.59878107e-01  9.19756214e-01 -4.59878107e-01]
 [ 0.00000000e+00  0.00000000e+00  4.59878107e-01]
 [ 2.29939054e-01  2.29939054e-01  2.29939054e-01]
 [ 4.59878107e-01  4.59878107e-01  0.00000000e+00]
 [ 6.89817161e-01  6.89817161e-01 -2.29939054e-01]
 [ 2.29939054e-01 -2.29939054e-01  6.89817161e-01]
 [ 4.59878107e-01  0.00000000e+00  4.59878107e-01]
 [ 6.89817161e-01  2.29939054e-01  2.29939054e-01]
 [ 9.19756214e-01  4.59878107e-01 -2.77555756e-17]
 [ 4.59878107e-01 -4.59878107e-01  9.19756214e-01]
 [ 6.89817161e-01 -2.29939054e-01  6.89817161e-01]
 [ 9.19756214e-01  0.00000000e+00  4.59878107e-01]
 [ 1.14969527e+00  2.29939054e-01  2.29939054e-01]
 [-4.59878107e-01  4.59878107e-01  4.59878107e-01]
 [-2.29939054e-01  6.89817161e-01  2.29939054e-01]
 [ 0.00000000e+00  9.19756214e-01  0.00000000e+00]
 [ 2.29939054e-01  1.14969527e+00 -2.29939054e-01]
 [-2.29939054e-01  2.29939054e-01  6.89817161e-01]
 [ 0.00000000e+00  4.59878107e-01  4.59878107e-01]
 [ 2.29939054e-01  6.89817161e-01  2.29939054e-01]
 [ 4.59878107e-01  9.19756214e-01 -2.77555756e-17]
 [ 0.00000000e+00  0.00000000e+00  9.19756214e-01]
 [ 2.29939054e-01  2.29939054e-01  6.89817161e-01]
 [ 4.59878107e-01  4.59878107e-01  4.59878107e-01]
 [ 6.89817161e-01  6.89817161e-01  2.29939054e-01]
 [ 2.29939054e-01 -2.29939054e-01  1.14969527e+00]
 [ 4.59878107e-01  0.00000000e+00  9.19756214e-01]
 [ 6.89817161e-01  2.29939054e-01  6.89817161e-01]
 [ 9.19756214e-01  4.59878107e-01  4.59878107e-01]
 [-6.89817161e-01  6.89817161e-01  6.89817161e-01]
 [-4.59878107e-01  9.19756214e-01  4.59878107e-01]
 [-2.29939054e-01  1.14969527e+00  2.29939054e-01]
 [ 2.77555756e-17  1.37963432e+00 -2.77555756e-17]
 [-4.59878107e-01  4.59878107e-01  9.19756214e-01]
 [-2.29939054e-01  6.89817161e-01  6.89817161e-01]
 [ 5.55111512e-17  9.19756214e-01  4.59878107e-01]
 [ 2.29939054e-01  1.14969527e+00  2.29939054e-01]
 [-2.29939054e-01  2.29939054e-01  1.14969527e+00]
 [ 2.77555756e-17  4.59878107e-01  9.19756214e-01]
 [ 2.29939054e-01  6.89817161e-01  6.89817161e-01]
 [ 4.59878107e-01  9.19756214e-01  4.59878107e-01]
 [ 2.77555756e-17 -2.77555756e-17  1.37963432e+00]
 [ 2.29939054e-01  2.29939054e-01  1.14969527e+00]
 [ 4.59878107e-01  4.59878107e-01  9.19756214e-01]
 [ 6.89817161e-01  6.89817161e-01  6.89817161e-01]]
Even tempered Gaussians are generated as DF auxbasis for  N B
  ETB auxbasis for N  [[0, [2927.8208, 1]], [0, [1463.9104, 1]], [0, [731.9552, 1]], [0, [365.9776, 1]], [0, [182.9888, 1]], [0, [91.4944, 1]], [0, [45.7472, 1]], [0, [22.8736, 1]], [0, [11.4368, 1]], [0, [5.7184, 1]], [0, [2.8592, 1]], [0, [1.4296, 1]], [0, [0.7148, 1]], [0, [0.3574, 1]], [1, [359.572755541907, 1]], [1, [179.7863777709535, 1]], [1, [89.89318888547675, 1]], [1, [44.94659444273837, 1]], [1, [22.473297221369187, 1]], [1, [11.236648610684593, 1]], [1, [5.618324305342297, 1]], [1, [2.8091621526711483, 1]], [1, [1.4045810763355742, 1]], [1, [0.7022905381677871, 1]], [1, [0.35114526908389354, 1]], [2, [176.64, 1]], [2, [88.32, 1]], [2, [44.16, 1]], [2, [22.08, 1]], [2, [11.04, 1]], [2, [5.52, 1]], [2, [2.76, 1]], [2, [1.38, 1]], [2, [0.69, 1]], [2, [0.345, 1]], [3, [36.40750691821674, 1]], [3, [18.20375345910837, 1]], [3, [9.101876729554185, 1]], [3, [4.5509383647770925, 1]], [3, [2.2754691823885462, 1]], [3, [1.1377345911942731, 1]], [3, [0.5688672955971366, 1]], [4, [15.008, 1]], [4, [7.504, 1]], [4, [3.752, 1]], [4, [1.876, 1]], [4, [0.938, 1]]]
  ETB auxbasis for B  [[0, [1410.6624, 1]], [0, [705.3312, 1]], [0, [352.6656, 1]], [0, [176.3328, 1]], [0, [88.1664, 1]], [0, [44.0832, 1]], [0, [22.0416, 1]], [0, [11.0208, 1]], [0, [5.5104, 1]], [0, [2.7552, 1]], [0, [1.3776, 1]], [0, [0.6888, 1]], [0, [0.3444, 1]], [0, [0.1722, 1]], [1, [166.73258420990183, 1]], [1, [83.36629210495092, 1]], [1, [41.68314605247546, 1]], [1, [20.84157302623773, 1]], [1, [10.420786513118864, 1]], [1, [5.210393256559432, 1]], [1, [2.605196628279716, 1]], [1, [1.302598314139858, 1]], [1, [0.651299157069929, 1]], [1, [0.3256495785349645, 1]], [1, [0.16282478926748226, 1]], [2, [157.65504, 1]], [2, [78.82752, 1]], [2, [39.41376, 1]], [2, [19.70688, 1]], [2, [9.85344, 1]], [2, [4.92672, 1]], [2, [2.46336, 1]], [2, [1.23168, 1]], [2, [0.61584, 1]], [2, [0.30792, 1]], [2, [0.15396, 1]], [3, [31.685127342650844, 1]], [3, [15.842563671325422, 1]], [3, [7.921281835662711, 1]], [3, [3.9606409178313555, 1]], [3, [1.9803204589156778, 1]], [3, [0.9901602294578389, 1]], [3, [0.49508011472891944, 1]], [3, [0.24754005736445972, 1]], [4, [25.472, 1]], [4, [12.736, 1]], [4, [6.368, 1]], [4, [3.184, 1]], [4, [1.592, 1]], [4, [0.796, 1]], [4, [0.398, 1]]]
num shells = 98, num cGTOs = 412
Drop 0 primitive fitting functions
make aux basis, num shells = 98, num cGTOs = 412
auxcell.rcut 15.012237045426083
make compensating basis, num shells = 10, num cGTOs = 50
chgcell.rcut 11.482117703874595
    CPU time for 3c2e  94478.59 sec, wall time   3381.32 sec
Num uniq kpts 172
uniq_kpts [[ 0.00000000e+00  0.00000000e+00  0.00000000e+00]
 [-2.29939054e-01 -2.29939054e-01  2.29939054e-01]
 [-4.59878107e-01 -4.59878107e-01  4.59878107e-01]
 [-6.89817161e-01 -6.89817161e-01  6.89817161e-01]
 [-2.29939054e-01  2.29939054e-01 -2.29939054e-01]
 [ 0.00000000e+00  4.59878107e-01 -4.59878107e-01]
 [ 2.29939054e-01  6.89817161e-01 -6.89817161e-01]
 [ 4.59878107e-01  9.19756214e-01 -9.19756214e-01]
 [-4.59878107e-01  0.00000000e+00  0.00000000e+00]
 [-6.89817161e-01 -2.29939054e-01  2.29939054e-01]
 [-9.19756214e-01 -4.59878107e-01  4.59878107e-01]
 [-4.59878107e-01  4.59878107e-01 -4.59878107e-01]
 [-2.29939054e-01  6.89817161e-01 -6.89817161e-01]
 [ 0.00000000e+00  9.19756214e-01 -9.19756214e-01]
 [ 2.29939054e-01  1.14969527e+00 -1.14969527e+00]
 [-6.89817161e-01  2.29939054e-01 -2.29939054e-01]
 [-9.19756214e-01  0.00000000e+00  0.00000000e+00]
 [-1.14969527e+00 -2.29939054e-01  2.29939054e-01]
 [-6.89817161e-01  6.89817161e-01 -6.89817161e-01]
 [-4.59878107e-01  9.19756214e-01 -9.19756214e-01]
 [-2.29939054e-01  1.14969527e+00 -1.14969527e+00]
 [ 0.00000000e+00  1.37963432e+00 -1.37963432e+00]
 [-9.19756214e-01  4.59878107e-01 -4.59878107e-01]
 [-1.14969527e+00  2.29939054e-01 -2.29939054e-01]
 [-1.37963432e+00 -2.77555756e-17  2.77555756e-17]
 [ 2.29939054e-01 -2.29939054e-01 -2.29939054e-01]
 [ 4.59878107e-01  0.00000000e+00 -4.59878107e-01]
 [ 6.89817161e-01  2.29939054e-01 -6.89817161e-01]
 [ 9.19756214e-01  4.59878107e-01 -9.19756214e-01]
 [ 4.59878107e-01 -4.59878107e-01  0.00000000e+00]
 [ 6.89817161e-01 -2.29939054e-01 -2.29939054e-01]
 [ 9.19756214e-01  0.00000000e+00 -4.59878107e-01]
 [ 1.14969527e+00  2.29939054e-01 -6.89817161e-01]
 [ 6.89817161e-01 -6.89817161e-01  2.29939054e-01]
 [ 9.19756214e-01 -4.59878107e-01  0.00000000e+00]
 [ 1.14969527e+00 -2.29939054e-01 -2.29939054e-01]
 [ 1.37963432e+00  0.00000000e+00 -4.59878107e-01]
 [ 9.19756214e-01 -9.19756214e-01  4.59878107e-01]
 [ 1.14969527e+00 -6.89817161e-01  2.29939054e-01]
 [ 1.37963432e+00 -4.59878107e-01 -2.77555756e-17]
 [ 1.60957338e+00 -2.29939054e-01 -2.29939054e-01]
 [ 0.00000000e+00 -4.59878107e-01  0.00000000e+00]
 [ 2.29939054e-01 -6.89817161e-01  2.29939054e-01]
 [ 4.59878107e-01 -9.19756214e-01  4.59878107e-01]
 [ 6.89817161e-01 -1.14969527e+00  6.89817161e-01]
 [-2.29939054e-01 -6.89817161e-01  2.29939054e-01]
 [ 0.00000000e+00 -9.19756214e-01  4.59878107e-01]
 [ 2.29939054e-01 -1.14969527e+00  6.89817161e-01]
 [ 4.59878107e-01 -1.37963432e+00  9.19756214e-01]
 [-4.59878107e-01 -9.19756214e-01  4.59878107e-01]
 [-2.29939054e-01 -1.14969527e+00  6.89817161e-01]
 [ 0.00000000e+00 -1.37963432e+00  9.19756214e-01]
 [ 2.29939054e-01 -1.60957338e+00  1.14969527e+00]
 [ 0.00000000e+00  0.00000000e+00 -4.59878107e-01]
 [ 2.29939054e-01  2.29939054e-01 -6.89817161e-01]
 [ 4.59878107e-01  4.59878107e-01 -9.19756214e-01]
 [ 6.89817161e-01  6.89817161e-01 -1.14969527e+00]
 [-2.29939054e-01 -2.29939054e-01 -2.29939054e-01]
 [-4.59878107e-01 -4.59878107e-01  0.00000000e+00]
 [-6.89817161e-01 -6.89817161e-01  2.29939054e-01]
 [-2.29939054e-01  2.29939054e-01 -6.89817161e-01]
 [ 0.00000000e+00  4.59878107e-01 -9.19756214e-01]
 [ 2.29939054e-01  6.89817161e-01 -1.14969527e+00]
 [ 4.59878107e-01  9.19756214e-01 -1.37963432e+00]
 [-4.59878107e-01  0.00000000e+00 -4.59878107e-01]
 [-6.89817161e-01 -2.29939054e-01 -2.29939054e-01]
 [-9.19756214e-01 -4.59878107e-01  2.77555756e-17]
 [-4.59878107e-01  4.59878107e-01 -9.19756214e-01]
 [-2.29939054e-01  6.89817161e-01 -1.14969527e+00]
 [ 0.00000000e+00  9.19756214e-01 -1.37963432e+00]
 [ 2.29939054e-01  1.14969527e+00 -1.60957338e+00]
 [-6.89817161e-01  2.29939054e-01 -6.89817161e-01]
 [-9.19756214e-01  0.00000000e+00 -4.59878107e-01]
 [-1.14969527e+00 -2.29939054e-01 -2.29939054e-01]
 [ 4.59878107e-01 -4.59878107e-01 -4.59878107e-01]
 [ 6.89817161e-01 -2.29939054e-01 -6.89817161e-01]
 [ 9.19756214e-01  0.00000000e+00 -9.19756214e-01]
 [ 1.14969527e+00  2.29939054e-01 -1.14969527e+00]
 [ 6.89817161e-01 -6.89817161e-01 -2.29939054e-01]
 [ 9.19756214e-01 -4.59878107e-01 -4.59878107e-01]
 [ 1.14969527e+00 -2.29939054e-01 -6.89817161e-01]
 [ 1.37963432e+00  0.00000000e+00 -9.19756214e-01]
 [ 9.19756214e-01 -9.19756214e-01  0.00000000e+00]
 [ 1.14969527e+00 -6.89817161e-01 -2.29939054e-01]
 [ 1.37963432e+00 -4.59878107e-01 -4.59878107e-01]
 [ 1.60957338e+00 -2.29939054e-01 -6.89817161e-01]
 [ 1.14969527e+00 -1.14969527e+00  2.29939054e-01]
 [ 1.37963432e+00 -9.19756214e-01 -5.55111512e-17]
 [ 1.60957338e+00 -6.89817161e-01 -2.29939054e-01]
 [ 1.83951243e+00 -4.59878107e-01 -4.59878107e-01]
 [ 2.29939054e-01 -6.89817161e-01 -2.29939054e-01]
 [ 4.59878107e-01 -9.19756214e-01  0.00000000e+00]
 [ 6.89817161e-01 -1.14969527e+00  2.29939054e-01]
 [ 9.19756214e-01 -1.37963432e+00  4.59878107e-01]
 [ 0.00000000e+00 -9.19756214e-01  0.00000000e+00]
 [ 2.29939054e-01 -1.14969527e+00  2.29939054e-01]
 [ 4.59878107e-01 -1.37963432e+00  4.59878107e-01]
 [ 6.89817161e-01 -1.60957338e+00  6.89817161e-01]
 [-2.29939054e-01 -1.14969527e+00  2.29939054e-01]
 [ 0.00000000e+00 -1.37963432e+00  4.59878107e-01]
 [ 2.29939054e-01 -1.60957338e+00  6.89817161e-01]
 [ 4.59878107e-01 -1.83951243e+00  9.19756214e-01]
 [ 2.29939054e-01 -2.29939054e-01 -6.89817161e-01]
 [ 4.59878107e-01  0.00000000e+00 -9.19756214e-01]
 [ 6.89817161e-01  2.29939054e-01 -1.14969527e+00]
 [ 9.19756214e-01  4.59878107e-01 -1.37963432e+00]
 [ 0.00000000e+00 -4.59878107e-01 -4.59878107e-01]
 [-2.29939054e-01 -6.89817161e-01 -2.29939054e-01]
 [-4.59878107e-01 -9.19756214e-01  2.77555756e-17]
 [ 0.00000000e+00  0.00000000e+00 -9.19756214e-01]
 [ 2.29939054e-01  2.29939054e-01 -1.14969527e+00]
 [ 4.59878107e-01  4.59878107e-01 -1.37963432e+00]
 [ 6.89817161e-01  6.89817161e-01 -1.60957338e+00]
 [-2.29939054e-01 -2.29939054e-01 -6.89817161e-01]
 [-4.59878107e-01 -4.59878107e-01 -4.59878107e-01]
 [-6.89817161e-01 -6.89817161e-01 -2.29939054e-01]
 [-2.29939054e-01  2.29939054e-01 -1.14969527e+00]
 [ 0.00000000e+00  4.59878107e-01 -1.37963432e+00]
 [ 2.29939054e-01  6.89817161e-01 -1.60957338e+00]
 [ 4.59878107e-01  9.19756214e-01 -1.83951243e+00]
 [-4.59878107e-01  0.00000000e+00 -9.19756214e-01]
 [-6.89817161e-01 -2.29939054e-01 -6.89817161e-01]
 [-9.19756214e-01 -4.59878107e-01 -4.59878107e-01]
 [ 6.89817161e-01 -6.89817161e-01 -6.89817161e-01]
 [ 9.19756214e-01 -4.59878107e-01 -9.19756214e-01]
 [ 1.14969527e+00 -2.29939054e-01 -1.14969527e+00]
 [ 1.37963432e+00  0.00000000e+00 -1.37963432e+00]
 [ 9.19756214e-01 -9.19756214e-01 -4.59878107e-01]
 [ 1.14969527e+00 -6.89817161e-01 -6.89817161e-01]
 [ 1.37963432e+00 -4.59878107e-01 -9.19756214e-01]
 [ 1.60957338e+00 -2.29939054e-01 -1.14969527e+00]
 [ 1.14969527e+00 -1.14969527e+00 -2.29939054e-01]
 [ 1.37963432e+00 -9.19756214e-01 -4.59878107e-01]
 [ 1.60957338e+00 -6.89817161e-01 -6.89817161e-01]
 [ 1.83951243e+00 -4.59878107e-01 -9.19756214e-01]
 [ 1.37963432e+00 -1.37963432e+00  0.00000000e+00]
 [ 1.60957338e+00 -1.14969527e+00 -2.29939054e-01]
 [ 1.83951243e+00 -9.19756214e-01 -4.59878107e-01]
 [ 2.06945148e+00 -6.89817161e-01 -6.89817161e-01]
 [ 4.59878107e-01 -9.19756214e-01 -4.59878107e-01]
 [ 6.89817161e-01 -1.14969527e+00 -2.29939054e-01]
 [ 9.19756214e-01 -1.37963432e+00  5.55111512e-17]
 [ 1.14969527e+00 -1.60957338e+00  2.29939054e-01]
 [ 2.29939054e-01 -1.14969527e+00 -2.29939054e-01]
 [ 4.59878107e-01 -1.37963432e+00  2.77555756e-17]
 [ 6.89817161e-01 -1.60957338e+00  2.29939054e-01]
 [ 9.19756214e-01 -1.83951243e+00  4.59878107e-01]
 [-2.77555756e-17 -1.37963432e+00  2.77555756e-17]
 [ 2.29939054e-01 -1.60957338e+00  2.29939054e-01]
 [ 4.59878107e-01 -1.83951243e+00  4.59878107e-01]
 [ 6.89817161e-01 -2.06945148e+00  6.89817161e-01]
 [ 4.59878107e-01 -4.59878107e-01 -9.19756214e-01]
 [ 6.89817161e-01 -2.29939054e-01 -1.14969527e+00]
 [ 9.19756214e-01  5.55111512e-17 -1.37963432e+00]
 [ 1.14969527e+00  2.29939054e-01 -1.60957338e+00]
 [ 2.29939054e-01 -6.89817161e-01 -6.89817161e-01]
 [-5.55111512e-17 -9.19756214e-01 -4.59878107e-01]
 [-2.29939054e-01 -1.14969527e+00 -2.29939054e-01]
 [ 2.29939054e-01 -2.29939054e-01 -1.14969527e+00]
 [ 4.59878107e-01  2.77555756e-17 -1.37963432e+00]
 [ 6.89817161e-01  2.29939054e-01 -1.60957338e+00]
 [ 9.19756214e-01  4.59878107e-01 -1.83951243e+00]
 [-2.77555756e-17 -4.59878107e-01 -9.19756214e-01]
 [-2.29939054e-01 -6.89817161e-01 -6.89817161e-01]
 [-4.59878107e-01 -9.19756214e-01 -4.59878107e-01]
 [-2.77555756e-17  2.77555756e-17 -1.37963432e+00]
 [ 2.29939054e-01  2.29939054e-01 -1.60957338e+00]
 [ 4.59878107e-01  4.59878107e-01 -1.83951243e+00]
 [ 6.89817161e-01  6.89817161e-01 -2.06945148e+00]
 [-2.29939054e-01 -2.29939054e-01 -1.14969527e+00]
 [-4.59878107e-01 -4.59878107e-01 -9.19756214e-01]
 [-6.89817161e-01 -6.89817161e-01 -6.89817161e-01]]
max_memory 699086.903296 (MB)  blocksize 37829377
Cholesky decomposition for j2c at kpt 0
Symmetry pattern (k - [0. 0. 0.])*a= 2n pi
    make_kpt for uniq_kptji_ids [0]
kpt = [0. 0. 0.]
adapted_ji_idx = [   0    2    5    9   14   20   27   35   44   54   65   77   90  104
  119  135  152  170  189  209  230  252  275  299  324  350  377  405
  434  464  495  527  560  594  629  665  702  740  779  819  860  902
  945  989 1034 1080 1127 1175 1224 1274 1325 1377 1430 1484 1539 1595
 1652 1710 1769 1829 1890 1952 2015 2079]
memory = 336.760832
int3c2e [1/1], AO [0:28], ncol = 3741
Symmetry pattern (k + [0. 0. 0.])*a= 2n pi
    make_kpt for [0]
Cholesky decomposition for j2c at kpt 1
Symmetry pattern (k - [-0.22993905 -0.22993905  0.22993905])*a= 2n pi
    make_kpt for uniq_kptji_ids [1]
kpt = [-0.22993905 -0.22993905  0.22993905]
adapted_ji_idx = [   1    4    8   19   26   34   53   64   76  103  118  134  169  188
  208  251  274  298  349  376  404  463  494  526  593  628  664  739
  778  818  901  944  988 1079 1126 1174 1273 1324 1376 1483 1538 1594
 1709 1768 1828 1951 2014 2078]
memory = 1980.669952
int3c2e [1/1], AO [0:28], ncol = 7396
Symmetry pattern (k + [-0.22993905 -0.22993905  0.22993905])*a= 2n pi
    make_kpt for [3]
kpt = [-0.68981716 -0.68981716  0.68981716]
adapted_ji_idx = [   6   32   74  132  206  296  402  524  662  816  986 1172 1374 1592
 1826 2076]
memory = 1873.752064
int3c2e [1/1], AO [0:28], ncol = 7396
Cholesky decomposition for j2c at kpt 2
Symmetry pattern (k - [-0.45987811 -0.45987811  0.45987811])*a= 2n pi
    make_kpt for uniq_kptji_ids [2]
kpt = [-0.45987811 -0.45987811  0.45987811]
adapted_ji_idx = [   3    7   25   33   63   75  117  133  187  207  273  297  375  403
  493  525  627  663  777  817  943  987 1125 1173 1323 1375 1537 1593
 1767 1827 2013 2077]
memory = 2450.046976
int3c2e [1/1], AO [0:28], ncol = 7396
Symmetry pattern (k + [-0.45987811 -0.45987811  0.45987811])*a= 2n pi
    make_kpt for [2]
Cholesky decomposition for j2c at kpt 4
Symmetry pattern (k - [-0.22993905  0.22993905 -0.22993905])*a= 2n pi
    make_kpt for uniq_kptji_ids [4]
kpt = [-0.22993905  0.22993905 -0.22993905]
adapted_ji_idx = [  10   16   23   31   40   50   61   73   86  100  115  131  226  248
  271  295  320  346  373  401  430  460  491  523  698  736  775  815
  856  898  941  985 1030 1076 1123 1171 1426 1480 1535 1591 1648 1706
 1765 1825 1886 1948 2011 2075]
memory = 2693.660672
int3c2e [1/1], AO [0:28], ncol = 7396
Symmetry pattern (k + [-0.22993905  0.22993905 -0.22993905])*a= 2n pi
    make_kpt for [18]
kpt = [-0.68981716  0.68981716 -0.68981716]
adapted_ji_idx = [  78   92  107  123  422  452  483  515 1022 1068 1115 1163 1878 1940
 2003 2067]
memory = 3694.477312
int3c2e [1/1], AO [0:28], ncol = 7396
Cholesky decomposition for j2c at kpt 5
Symmetry pattern (k - [ 0.          0.45987811 -0.45987811])*a= 2n pi
    make_kpt for uniq_kptji_ids [ 5 10]
kpt = [ 0.          0.45987811 -0.45987811]
adapted_ji_idx = [  11   17   24   41   51   62   87  101  116  227  249  272  321  347
  374  431  461  492  699  737  776  857  899  942 1031 1077 1124 1427
 1481 1536 1649 1707 1766 1887 1949 2012]
memory = 3771.10528
int3c2e [1/1], AO [0:28], ncol = 7396
kpt = [-0.91975621 -0.45987811  0.45987811]
adapted_ji_idx = [  28   70  128  292  398  520  812  982 1168 1588 1822 2072]
memory = 3773.6448
int3c2e [1/1], AO [0:28], ncol = 7396
Symmetry pattern (k + [ 0.          0.45987811 -0.45987811])*a= 2n pi
    make_kpt for [21 22]
kpt = [ 0.          1.37963432 -1.37963432]
adapted_ji_idx = [  81  425 1025 1881]
memory = 3843.616768
int3c2e [1/1], AO [0:28], ncol = 7396
kpt = [-0.91975621  0.45987811 -0.45987811]
adapted_ji_idx = [  91  106  122  451  482  514 1067 1114 1162 1939 2002 2066]
memory = 3853.570048
int3c2e [1/1], AO [0:28], ncol = 7396
Cholesky decomposition for j2c at kpt 6
Symmetry pattern (k - [ 0.22993905  0.68981716 -0.68981716])*a= 2n pi
    make_kpt for uniq_kptji_ids [6 9]
kpt = [ 0.22993905  0.68981716 -0.68981716]
adapted_ji_idx = [  12   18   42   52   88  102  228  250  322  348  432  462  700  738
  858  900 1032 1078 1428 1482 1650 1708 1888 1950]
memory = 3856.101376
int3c2e [1/1], AO [0:28], ncol = 7396
kpt = [-0.68981716 -0.22993905  0.22993905]
adapted_ji_idx = [  21   29   59   71  113  129  269  293  371  399  489  521  773  813
  939  983 1121 1169 1533 1589 1763 1823 2009 2073]
memory = 3827.892224
int3c2e [1/1], AO [0:28], ncol = 7396
Symmetry pattern (k + [ 0.22993905  0.68981716 -0.68981716])*a= 2n pi
    make_kpt for [20 23]
kpt = [-0.22993905  1.14969527 -1.14969527]
adapted_ji_idx = [  80   94  424  454 1024 1070 1880 1942]
memory = 3831.52128
int3c2e [1/1], AO [0:28], ncol = 7396
kpt = [-1.14969527  0.22993905 -0.22993905]
adapted_ji_idx = [ 105  121  481  513 1113 1161 2001 2065]
memory = 3882.487808
int3c2e [1/1], AO [0:28], ncol = 7396
Cholesky decomposition for j2c at kpt 7
Symmetry pattern (k - [ 0.45987811  0.91975621 -0.91975621])*a= 2n pi
    make_kpt for uniq_kptji_ids [7 8]
kpt = [ 0.45987811  0.91975621 -0.91975621]
adapted_ji_idx = [  13   43   89  229  323  433  701  859 1033 1429 1651 1889]
memory = 3889.37728
int3c2e [1/1], AO [0:28], ncol = 7396
kpt = [-0.45987811  0.          0.        ]
adapted_ji_idx = [  15   22   30   49   60   72   99  114  130  247  270  294  345  372
  400  459  490  522  735  774  814  897  940  984 1075 1122 1170 1479
 1534 1590 1705 1764 1824 1947 2010 2074]
memory = 3890.307072
int3c2e [1/1], AO [0:28], ncol = 7396
Symmetry pattern (k + [ 0.45987811  0.91975621 -0.91975621])*a= 2n pi
    make_kpt for [19 24]
kpt = [-0.45987811  0.91975621 -0.91975621]
adapted_ji_idx = [  79   93  108  423  453  484 1023 1069 1116 1879 1941 2004]
memory = 3839.93856
int3c2e [1/1], AO [0:28], ncol = 7396
kpt = [-1.37963432e+00 -2.77555756e-17  2.77555756e-17]
adapted_ji_idx = [ 120  512 1160 2064]
memory = 3899.57632
int3c2e [1/1], AO [0:28], ncol = 7396
Cholesky decomposition for j2c at kpt 11
Symmetry pattern (k - [-0.45987811  0.45987811 -0.45987811])*a= 2n pi
    make_kpt for uniq_kptji_ids [11]
kpt = [-0.45987811  0.45987811 -0.45987811]
adapted_ji_idx = [  36   46   57   69   82   96  111  127  316  342  369  397  426  456
  487  519  852  894  937  981 1026 1072 1119 1167 1644 1702 1761 1821
 1882 1944 2007 2071]
memory = 3903.229952
int3c2e [1/1], AO [0:28], ncol = 7396
Symmetry pattern (k + [-0.45987811  0.45987811 -0.45987811])*a= 2n pi
    make_kpt for [11]
Cholesky decomposition for j2c at kpt 12
Symmetry pattern (k - [-0.22993905  0.68981716 -0.68981716])*a= 2n pi
    make_kpt for uniq_kptji_ids [12 17]
kpt = [-0.22993905  0.68981716 -0.68981716]
adapted_ji_idx = [  37   47   58   83   97  112  317  343  370  427  457  488  853  895
  938 1027 1073 1120 1645 1703 1762 1883 1945 2008]
memory = 3848.269824
int3c2e [1/1], AO [0:28], ncol = 7396
kpt = [-1.14969527 -0.22993905  0.22993905]
adapted_ji_idx = [  66  124  394  516  978 1164 1818 2068]
memory = 3848.450048
int3c2e [1/1], AO [0:28], ncol = 7396
Symmetry pattern (k + [-0.22993905  0.68981716 -0.68981716])*a= 2n pi
    make_kpt for [14 15]
kpt = [ 0.22993905  1.14969527 -1.14969527]
adapted_ji_idx = [  39   85  319  429  855 1029 1647 1885]
memory = 3905.568768
int3c2e [1/1], AO [0:28], ncol = 7396
kpt = [-0.68981716  0.22993905 -0.22993905]
adapted_ji_idx = [  45   56   68   95  110  126  341  368  396  455  486  518  893  936
  980 1071 1118 1166 1701 1760 1820 1943 2006 2070]
memory = 3904.913408
int3c2e [1/1], AO [0:28], ncol = 7396
Cholesky decomposition for j2c at kpt 13
Symmetry pattern (k - [ 0.          0.91975621 -0.91975621])*a= 2n pi
    make_kpt for uniq_kptji_ids [13 16]
kpt = [ 0.          0.91975621 -0.91975621]
adapted_ji_idx = [  38   48   84   98  318  344  428  458  854  896 1028 1074 1646 1704
 1884 1946]
memory = 3849.449472
int3c2e [1/1], AO [0:28], ncol = 7396
kpt = [-0.91975621  0.          0.        ]
adapted_ji_idx = [  55   67  109  125  367  395  485  517  935  979 1117 1165 1759 1819
 2005 2069]
memory = 3907.190784
int3c2e [1/1], AO [0:28], ncol = 7396
Symmetry pattern (k + [ 0.          0.91975621 -0.91975621])*a= 2n pi
    make_kpt for [13 16]
Cholesky decomposition for j2c at kpt 25
Symmetry pattern (k - [ 0.22993905 -0.22993905 -0.22993905])*a= 2n pi
    make_kpt for uniq_kptji_ids [25]
kpt = [ 0.22993905 -0.22993905 -0.22993905]
adapted_ji_idx = [ 136  154  173  193  214  236  259  283  308  334  361  389  418  448
  479  511  544  578  613  649  686  724  763  803  844  886  929  973
 1018 1064 1111 1159 1208 1258 1309 1361 1414 1468 1523 1579 1636 1694
 1753 1813 1874 1936 1999 2063]
memory = 3906.871296
int3c2e [1/1], AO [0:28], ncol = 7396
Symmetry pattern (k + [ 0.22993905 -0.22993905 -0.22993905])*a= 2n pi
    make_kpt for [123]
kpt = [ 0.68981716 -0.68981716 -0.68981716]
adapted_ji_idx = [1176 1226 1277 1329 1382 1436 1491 1547 1604 1662 1721 1781 1842 1904
 1967 2031]
memory = 4025.409536
int3c2e [1/1], AO [0:28], ncol = 7396
Cholesky decomposition for j2c at kpt 26
Symmetry pattern (k - [ 0.45987811  0.         -0.45987811])*a= 2n pi
    make_kpt for uniq_kptji_ids [26 49]
kpt = [ 0.45987811  0.         -0.45987811]
adapted_ji_idx = [ 137  155  174  215  237  260  309  335  362  419  449  480  545  579
  614  687  725  764  845  887  930 1019 1065 1112 1209 1259 1310 1415
 1469 1524 1637 1695 1754 1875 1937 2000]
memory = 4083.781632
int3c2e [1/1], AO [0:28], ncol = 7396
kpt = [-0.45987811 -0.91975621  0.45987811]
adapted_ji_idx = [ 190  280  386  508  646  800  970 1156 1358 1576 1810 2060]
memory = 4032.83968
int3c2e [1/1], AO [0:28], ncol = 7396
Symmetry pattern (k + [ 0.45987811  0.         -0.45987811])*a= 2n pi
    make_kpt for [126 139]
kpt = [ 1.37963432  0.         -1.37963432]
adapted_ji_idx = [1179 1385 1607 1845]
memory = 4088.918016
int3c2e [1/1], AO [0:28], ncol = 7396
kpt = [ 0.45987811 -0.91975621 -0.45987811]
adapted_ji_idx = [1225 1276 1328 1435 1490 1546 1661 1720 1780 1903 1966 2030]
memory = 4088.201216
int3c2e [1/1], AO [0:28], ncol = 7396
Cholesky decomposition for j2c at kpt 27
Symmetry pattern (k - [ 0.68981716  0.22993905 -0.68981716])*a= 2n pi
    make_kpt for uniq_kptji_ids [27 45]
kpt = [ 0.68981716  0.22993905 -0.68981716]
adapted_ji_idx = [ 138  156  216  238  310  336  420  450  546  580  688  726  846  888
 1020 1066 1210 1260 1416 1470 1638 1696 1876 1938]
memory = 4088.066048
int3c2e [1/1], AO [0:28], ncol = 7396
kpt = [-0.22993905 -0.68981716  0.22993905]
adapted_ji_idx = [ 171  191  257  281  359  387  477  509  611  647  761  801  927  971
 1109 1157 1307 1359 1521 1577 1751 1811 1997 2061]
memory = 4034.576384
int3c2e [1/1], AO [0:28], ncol = 7396
Symmetry pattern (k + [ 0.68981716  0.22993905 -0.68981716])*a= 2n pi
    make_kpt for [125 143]
kpt = [ 1.14969527 -0.22993905 -1.14969527]
adapted_ji_idx = [1178 1228 1384 1438 1606 1664 1844 1906]
memory = 4034.392064
int3c2e [1/1], AO [0:28], ncol = 7396
kpt = [ 0.22993905 -1.14969527 -0.22993905]
adapted_ji_idx = [1275 1327 1489 1545 1719 1779 1965 2029]
memory = 4086.669312
int3c2e [1/1], AO [0:28], ncol = 7396
Cholesky decomposition for j2c at kpt 28
Symmetry pattern (k - [ 0.91975621  0.45987811 -0.91975621])*a= 2n pi
    make_kpt for uniq_kptji_ids [28 41]
kpt = [ 0.91975621  0.45987811 -0.91975621]
adapted_ji_idx = [ 139  217  311  421  547  689  847 1021 1211 1417 1639 1877]
memory = 4093.042688
int3c2e [1/1], AO [0:28], ncol = 7396
kpt = [ 0.         -0.45987811  0.        ]
adapted_ji_idx = [ 153  172  192  235  258  282  333  360  388  447  478  510  577  612
  648  723  762  802  885  928  972 1063 1110 1158 1257 1308 1360 1467
 1522 1578 1693 1752 1812 1935 1998 2062]
memory = 4093.845504
int3c2e [1/1], AO [0:28], ncol = 7396
Symmetry pattern (k + [ 0.91975621  0.45987811 -0.91975621])*a= 2n pi
    make_kpt for [124 147]
kpt = [ 0.91975621 -0.45987811 -0.91975621]
adapted_ji_idx = [1177 1227 1278 1383 1437 1492 1605 1663 1722 1843 1905 1968]
memory = 4035.739648
int3c2e [1/1], AO [0:28], ncol = 7396
kpt = [-2.77555756e-17 -1.37963432e+00  2.77555756e-17]
adapted_ji_idx = [1326 1544 1778 2028]
memory = 4091.564032
int3c2e [1/1], AO [0:28], ncol = 7396
Cholesky decomposition for j2c at kpt 29
Symmetry pattern (k - [ 0.45987811 -0.45987811  0.        ])*a= 2n pi
    make_kpt for uniq_kptji_ids [29 67]
kpt = [ 0.45987811 -0.45987811  0.        ]
adapted_ji_idx = [ 140  158  177  197  218  240  263  287  312  338  365  393  548  582
  617  653  690  728  767  807  848  890  933  977 1212 1262 1313 1365
 1418 1472 1527 1583 1640 1698 1757 1817]
memory = 4092.751872
int3c2e [1/1], AO [0:28], ncol = 7396
kpt = [-0.45987811  0.45987811 -0.91975621]
adapted_ji_idx = [ 406  436  467  499 1006 1052 1099 1147 1862 1924 1987 2051]
memory = 4038.754304
int3c2e [1/1], AO [0:28], ncol = 7396
Symmetry pattern (k + [ 0.45987811 -0.45987811  0.        ])*a= 2n pi
    make_kpt for [135 151]
kpt = [ 1.37963432 -1.37963432  0.        ]
adapted_ji_idx = [1188 1238 1289 1341]
memory = 4098.3552
int3c2e [1/1], AO [0:28], ncol = 7396
kpt = [ 0.45987811 -0.45987811 -0.91975621]
adapted_ji_idx = [1378 1432 1487 1543 1600 1658 1717 1777 1838 1900 1963 2027]
memory = 4097.646592
int3c2e [1/1], AO [0:28], ncol = 7396
Cholesky decomposition for j2c at kpt 30
Symmetry pattern (k - [ 0.68981716 -0.22993905 -0.22993905])*a= 2n pi
    make_kpt for uniq_kptji_ids [30 50 68 73]
kpt = [ 0.68981716 -0.22993905 -0.22993905]
adapted_ji_idx = [ 141  159  178  219  241  264  313  339  366  549  583  618  691  729
  768  849  891  934 1213 1263 1314 1419 1473 1528 1641 1699 1758]
memory = 4102.275072
int3c2e [1/1], AO [0:28], ncol = 7396
kpt = [-0.22993905 -1.14969527  0.68981716]
adapted_ji_idx = [ 194  284  390  650  804  974 1362 1580 1814]
memory = 4039.409664
int3c2e [1/1], AO [0:28], ncol = 7396
kpt = [-0.22993905  0.68981716 -1.14969527]
adapted_ji_idx = [ 407  437  468 1007 1053 1100 1863 1925 1988]
memory = 4093.181952
int3c2e [1/1], AO [0:28], ncol = 7396
kpt = [-1.14969527 -0.22993905 -0.22993905]
adapted_ji_idx = [ 496 1144 2048]
memory = 4097.728512
int3c2e [1/1], AO [0:28], ncol = 7396
Symmetry pattern (k + [ 0.68981716 -0.22993905 -0.22993905])*a= 2n pi
    make_kpt for [138 142 154 155]
kpt = [ 2.06945148 -0.68981716 -0.68981716]
adapted_ji_idx = [1191]
memory = 4099.948544
int3c2e [1/1], AO [0:28], ncol = 7396
kpt = [ 1.14969527 -1.60957338  0.22993905]
adapted_ji_idx = [1237 1288 1340]
memory = 4099.272704
int3c2e [1/1], AO [0:28], ncol = 7396
kpt = [ 1.14969527  0.22993905 -1.60957338]
adapted_ji_idx = [1381 1603 1841]
memory = 4099.416064
int3c2e [1/1], AO [0:28], ncol = 7396
kpt = [ 0.22993905 -0.68981716 -0.68981716]
adapted_ji_idx = [1431 1486 1542 1657 1716 1776 1899 1962 2026]
memory = 4099.510272
int3c2e [1/1], AO [0:28], ncol = 7396
Cholesky decomposition for j2c at kpt 31
Symmetry pattern (k - [ 0.91975621  0.         -0.45987811])*a= 2n pi
    make_kpt for uniq_kptji_ids [31 46 69 72]
kpt = [ 0.91975621  0.         -0.45987811]
adapted_ji_idx = [ 142  160  220  242  314  340  550  584  692  730  850  892 1214 1264
 1420 1474 1642 1700]
memory = 4099.649536
int3c2e [1/1], AO [0:28], ncol = 7396
kpt = [ 0.         -0.91975621  0.45987811]
adapted_ji_idx = [ 175  195  261  285  363  391  615  651  765  805  931  975 1311 1363
 1525 1581 1755 1815]
memory = 4040.84736
int3c2e [1/1], AO [0:28], ncol = 7396
kpt = [ 0.          0.91975621 -1.37963432]
adapted_ji_idx = [ 408  438 1008 1054 1864 1926]
memory = 4040.716288
int3c2e [1/1], AO [0:28], ncol = 7396
kpt = [-0.91975621  0.         -0.45987811]
adapted_ji_idx = [ 465  497 1097 1145 1985 2049]
memory = 4098.473984
int3c2e [1/1], AO [0:28], ncol = 7396
Symmetry pattern (k + [ 0.91975621  0.         -0.45987811])*a= 2n pi
    make_kpt for [137 146 153 156]
kpt = [ 1.83951243 -0.91975621 -0.45987811]
adapted_ji_idx = [1190 1240]
memory = 4099.03104
int3c2e [1/1], AO [0:28], ncol = 7396
kpt = [ 0.91975621 -1.83951243  0.45987811]
adapted_ji_idx = [1287 1339]
memory = 4100.251648
int3c2e [1/1], AO [0:28], ncol = 7396
kpt = [ 9.19756214e-01  5.55111512e-17 -1.37963432e+00]
adapted_ji_idx = [1380 1434 1602 1660 1840 1902]
memory = 4100.296704
int3c2e [1/1], AO [0:28], ncol = 7396
kpt = [-5.55111512e-17 -9.19756214e-01 -4.59878107e-01]
adapted_ji_idx = [1485 1541 1715 1775 1961 2025]
memory = 4102.475776
int3c2e [1/1], AO [0:28], ncol = 7396
Cholesky decomposition for j2c at kpt 32
Symmetry pattern (k - [ 1.14969527  0.22993905 -0.68981716])*a= 2n pi
    make_kpt for uniq_kptji_ids [32 42 70 71]
kpt = [ 1.14969527  0.22993905 -0.68981716]
adapted_ji_idx = [ 143  221  315  551  693  851 1215 1421 1643]
memory = 4102.90176
int3c2e [1/1], AO [0:28], ncol = 7396
kpt = [ 0.22993905 -0.68981716  0.22993905]
adapted_ji_idx = [ 157  176  196  239  262  286  337  364  392  581  616  652  727  766
  806  889  932  976 1261 1312 1364 1471 1526 1582 1697 1756 1816]
memory = 4103.344128
int3c2e [1/1], AO [0:28], ncol = 7396
kpt = [ 0.22993905  1.14969527 -1.60957338]
adapted_ji_idx = [ 409 1009 1865]
memory = 4041.879552
int3c2e [1/1], AO [0:28], ncol = 7396
kpt = [-0.68981716  0.22993905 -0.68981716]
adapted_ji_idx = [ 435  466  498 1051 1098 1146 1923 1986 2050]
memory = 4097.642496
int3c2e [1/1], AO [0:28], ncol = 7396
Symmetry pattern (k + [ 1.14969527  0.22993905 -0.68981716])*a= 2n pi
    make_kpt for [136 150 152 157]
kpt = [ 1.60957338 -1.14969527 -0.22993905]
adapted_ji_idx = [1189 1239 1290]
memory = 4097.798144
int3c2e [1/1], AO [0:28], ncol = 7396
kpt = [ 0.68981716 -2.06945148  0.68981716]
adapted_ji_idx = [1338]
memory = 4098.428928
int3c2e [1/1], AO [0:28], ncol = 7396
kpt = [ 0.68981716 -0.22993905 -1.14969527]
adapted_ji_idx = [1379 1433 1488 1601 1659 1718 1839 1901 1964]
memory = 4098.097152
int3c2e [1/1], AO [0:28], ncol = 7396
kpt = [-0.22993905 -1.14969527 -0.22993905]
adapted_ji_idx = [1540 1774 2024]
memory = 4099.85024
int3c2e [1/1], AO [0:28], ncol = 7396
Cholesky decomposition for j2c at kpt 33
Symmetry pattern (k - [ 0.68981716 -0.68981716  0.22993905])*a= 2n pi
    make_kpt for uniq_kptji_ids [33 60]
kpt = [ 0.68981716 -0.68981716  0.22993905]
adapted_ji_idx = [ 144  162  181  201  222  244  267  291  552  586  621  657  694  732
  771  811 1216 1266 1317 1369 1422 1476 1531 1587]
memory = 4099.866624
int3c2e [1/1], AO [0:28], ncol = 7396
kpt = [-0.22993905  0.22993905 -0.68981716]
adapted_ji_idx = [ 300  326  353  381  410  440  471  503  836  878  921  965 1010 1056
 1103 1151 1628 1686 1745 1805 1866 1928 1991 2055]
memory = 4042.559488
int3c2e [1/1], AO [0:28], ncol = 7396
Symmetry pattern (k + [ 0.68981716 -0.68981716  0.22993905])*a= 2n pi
    make_kpt for [131 158]
kpt = [ 1.14969527 -1.14969527 -0.22993905]
adapted_ji_idx = [1184 1234 1285 1337 1390 1444 1499 1555]
memory = 4042.4448
int3c2e [1/1], AO [0:28], ncol = 7396
kpt = [ 0.22993905 -0.22993905 -1.14969527]
adapted_ji_idx = [1596 1654 1713 1773 1834 1896 1959 2023]
memory = 4095.545344
int3c2e [1/1], AO [0:28], ncol = 7396
Cholesky decomposition for j2c at kpt 34
Symmetry pattern (k - [ 0.91975621 -0.45987811  0.        ])*a= 2n pi
    make_kpt for uniq_kptji_ids [34 51 61 66]
kpt = [ 0.91975621 -0.45987811  0.        ]
adapted_ji_idx = [ 145  163  182  223  245  268  553  587  622  695  733  772 1217 1267
 1318 1423 1477 1532]
memory = 4103.675904
int3c2e [1/1], AO [0:28], ncol = 7396
kpt = [ 0.         -1.37963432  0.91975621]
adapted_ji_idx = [ 198  288  654  808 1366 1584]
memory = 4043.10016
int3c2e [1/1], AO [0:28], ncol = 7396
kpt = [ 0.          0.45987811 -0.91975621]
adapted_ji_idx = [ 301  327  354  411  441  472  837  879  922 1011 1057 1104 1629 1687
 1746 1867 1929 1992]
memory = 4105.248768
int3c2e [1/1], AO [0:28], ncol = 7396
kpt = [-9.19756214e-01 -4.59878107e-01  2.77555756e-17]
adapted_ji_idx = [ 378  500  962 1148 1802 2052]
memory = 4040.413184
int3c2e [1/1], AO [0:28], ncol = 7396
Symmetry pattern (k + [ 0.91975621 -0.45987811  0.        ])*a= 2n pi
    make_kpt for [134 141 161 162]
kpt = [ 1.83951243 -0.45987811 -0.91975621]
adapted_ji_idx = [1187 1393]
memory = 4102.877184
int3c2e [1/1], AO [0:28], ncol = 7396
kpt = [ 9.19756214e-01 -1.37963432e+00  5.55111512e-17]
adapted_ji_idx = [1233 1284 1336 1443 1498 1554]
memory = 4103.614464
int3c2e [1/1], AO [0:28], ncol = 7396
kpt = [ 0.91975621  0.45987811 -1.83951243]
adapted_ji_idx = [1599 1837]
memory = 4103.51616
int3c2e [1/1], AO [0:28], ncol = 7396
kpt = [-2.77555756e-17 -4.59878107e-01 -9.19756214e-01]
adapted_ji_idx = [1653 1712 1772 1895 1958 2022]
memory = 4102.242304
int3c2e [1/1], AO [0:28], ncol = 7396
Cholesky decomposition for j2c at kpt 35
Symmetry pattern (k - [ 1.14969527 -0.22993905 -0.22993905])*a= 2n pi
    make_kpt for uniq_kptji_ids [35 47 62 65]
kpt = [ 1.14969527 -0.22993905 -0.22993905]
adapted_ji_idx = [ 146  164  224  246  554  588  696  734 1218 1268 1424 1478]
memory = 4102.356992
int3c2e [1/1], AO [0:28], ncol = 7396
kpt = [ 0.22993905 -1.14969527  0.68981716]
adapted_ji_idx = [ 179  199  265  289  619  655  769  809 1315 1367 1529 1585]
memory = 4103.589888
int3c2e [1/1], AO [0:28], ncol = 7396
kpt = [ 0.22993905  0.68981716 -1.14969527]
adapted_ji_idx = [ 302  328  412  442  838  880 1012 1058 1630 1688 1868 1930]
memory = 4103.614464
int3c2e [1/1], AO [0:28], ncol = 7396
kpt = [-0.68981716 -0.22993905 -0.22993905]
adapted_ji_idx = [ 351  379  469  501  919  963 1101 1149 1743 1803 1989 2053]
memory = 4103.237632
int3c2e [1/1], AO [0:28], ncol = 7396
Symmetry pattern (k + [ 1.14969527 -0.22993905 -0.22993905])*a= 2n pi
    make_kpt for [133 145 160 163]
kpt = [ 1.60957338 -0.68981716 -0.68981716]
adapted_ji_idx = [1186 1236 1392 1446]
memory = 4103.51616
int3c2e [1/1], AO [0:28], ncol = 7396
kpt = [ 0.68981716 -1.60957338  0.22993905]
adapted_ji_idx = [1283 1335 1497 1553]
memory = 4102.967296
int3c2e [1/1], AO [0:28], ncol = 7396
kpt = [ 0.68981716  0.22993905 -1.60957338]
adapted_ji_idx = [1598 1656 1836 1898]
memory = 4102.61504
int3c2e [1/1], AO [0:28], ncol = 7396
kpt = [-0.22993905 -0.68981716 -0.68981716]
adapted_ji_idx = [1711 1771 1957 2021]
memory = 4102.26688
int3c2e [1/1], AO [0:28], ncol = 7396
Cholesky decomposition for j2c at kpt 36
Symmetry pattern (k - [ 1.37963432  0.         -0.45987811])*a= 2n pi
    make_kpt for uniq_kptji_ids [36 43 63 64]
kpt = [ 1.37963432  0.         -0.45987811]
adapted_ji_idx = [ 147  225  555  697 1219 1425]
memory = 4102.852608
int3c2e [1/1], AO [0:28], ncol = 7396
kpt = [ 0.45987811 -0.91975621  0.45987811]
adapted_ji_idx = [ 161  180  200  243  266  290  585  620  656  731  770  810 1265 1316
 1368 1475 1530 1586]
memory = 4102.868992
int3c2e [1/1], AO [0:28], ncol = 7396
kpt = [ 0.45987811  0.91975621 -1.37963432]
adapted_ji_idx = [ 303  413  839 1013 1631 1869]
memory = 4041.244672
int3c2e [1/1], AO [0:28], ncol = 7396
kpt = [-0.45987811  0.         -0.45987811]
adapted_ji_idx = [ 325  352  380  439  470  502  877  920  964 1055 1102 1150 1685 1744
 1804 1927 1990 2054]
memory = 4099.170304
int3c2e [1/1], AO [0:28], ncol = 7396
Symmetry pattern (k + [ 1.37963432  0.         -0.45987811])*a= 2n pi
    make_kpt for [132 149 159 164]
kpt = [ 1.37963432 -0.91975621 -0.45987811]
adapted_ji_idx = [1185 1235 1286 1391 1445 1500]
memory = 4041.445376
int3c2e [1/1], AO [0:28], ncol = 7396
kpt = [ 0.45987811 -1.83951243  0.45987811]
adapted_ji_idx = [1334 1552]
memory = 4103.72096
int3c2e [1/1], AO [0:28], ncol = 7396
kpt = [ 4.59878107e-01  2.77555756e-17 -1.37963432e+00]
adapted_ji_idx = [1597 1655 1714 1835 1897 1960]
memory = 4102.63552
int3c2e [1/1], AO [0:28], ncol = 7396
kpt = [-0.45987811 -0.91975621 -0.45987811]
adapted_ji_idx = [1770 2020]
memory = 4102.81984
int3c2e [1/1], AO [0:28], ncol = 7396
Cholesky decomposition for j2c at kpt 37
Symmetry pattern (k - [ 0.91975621 -0.91975621  0.45987811])*a= 2n pi
    make_kpt for uniq_kptji_ids [37 53]
kpt = [ 0.91975621 -0.91975621  0.45987811]
adapted_ji_idx = [ 148  166  185  205  556  590  625  661 1220 1270 1321 1373]
memory = 4101.988352
int3c2e [1/1], AO [0:28], ncol = 7396
kpt = [ 0.          0.         -0.45987811]
adapted_ji_idx = [ 210  232  255  279  304  330  357  385  414  444  475  507  682  720
  759  799  840  882  925  969 1014 1060 1107 1155 1410 1464 1519 1575
 1632 1690 1749 1809 1870 1932 1995 2059]
memory = 4103.266304
int3c2e [1/1], AO [0:28], ncol = 7396
Symmetry pattern (k + [ 0.91975621 -0.91975621  0.45987811])*a= 2n pi
    make_kpt for [127 165]
kpt = [ 0.91975621 -0.91975621 -0.45987811]
adapted_ji_idx = [1180 1230 1281 1333 1386 1440 1495 1551 1608 1666 1725 1785]
memory = 4044.210176
int3c2e [1/1], AO [0:28], ncol = 7396
kpt = [-2.77555756e-17  2.77555756e-17 -1.37963432e+00]
adapted_ji_idx = [1830 1892 1955 2019]
memory = 4103.745536
int3c2e [1/1], AO [0:28], ncol = 7396
Cholesky decomposition for j2c at kpt 38
Symmetry pattern (k - [ 1.14969527 -0.68981716  0.22993905])*a= 2n pi
    make_kpt for uniq_kptji_ids [38 52 54 59]
kpt = [ 1.14969527 -0.68981716  0.22993905]
adapted_ji_idx = [ 149  167  186  557  591  626 1221 1271 1322]
memory = 4103.450624
int3c2e [1/1], AO [0:28], ncol = 7396
kpt = [ 0.22993905 -1.60957338  1.14969527]
adapted_ji_idx = [ 202  658 1370]
memory = 4103.622656
int3c2e [1/1], AO [0:28], ncol = 7396
kpt = [ 0.22993905  0.22993905 -0.68981716]
adapted_ji_idx = [ 211  233  256  305  331  358  415  445  476  683  721  760  841  883
  926 1015 1061 1108 1411 1465 1520 1633 1691 1750 1871 1933 1996]
memory = 4105.70752
int3c2e [1/1], AO [0:28], ncol = 7396
kpt = [-0.68981716 -0.68981716  0.22993905]
adapted_ji_idx = [ 276  382  504  796  966 1152 1572 1806 2056]
memory = 4044.582912
int3c2e [1/1], AO [0:28], ncol = 7396
Symmetry pattern (k + [ 1.14969527 -0.68981716  0.22993905])*a= 2n pi
    make_kpt for [130 140 168 169]
kpt = [ 1.60957338 -0.22993905 -1.14969527]
adapted_ji_idx = [1183 1389 1611]
memory = 4097.896448
int3c2e [1/1], AO [0:28], ncol = 7396
kpt = [ 0.68981716 -1.14969527 -0.22993905]
adapted_ji_idx = [1229 1280 1332 1439 1494 1550 1665 1724 1784]
memory = 4101.431296
int3c2e [1/1], AO [0:28], ncol = 7396
kpt = [ 0.68981716  0.68981716 -2.06945148]
adapted_ji_idx = [1833]
memory = 4101.55008
int3c2e [1/1], AO [0:28], ncol = 7396
kpt = [-0.22993905 -0.22993905 -1.14969527]
adapted_ji_idx = [1891 1954 2018]
memory = 4101.238784
int3c2e [1/1], AO [0:28], ncol = 7396
Cholesky decomposition for j2c at kpt 39
Symmetry pattern (k - [ 1.37963432e+00 -4.59878107e-01 -2.77555756e-17])*a= 2n pi
    make_kpt for uniq_kptji_ids [39 48 55 58]
kpt = [ 1.37963432e+00 -4.59878107e-01 -2.77555756e-17]
adapted_ji_idx = [ 150  168  558  592 1222 1272]
memory = 4101.332992
int3c2e [1/1], AO [0:28], ncol = 7396
kpt = [ 0.45987811 -1.37963432  0.91975621]
adapted_ji_idx = [ 183  203  623  659 1319 1371]
memory = 4103.401472
int3c2e [1/1], AO [0:28], ncol = 7396
kpt = [ 0.45987811  0.45987811 -0.91975621]
adapted_ji_idx = [ 212  234  306  332  416  446  684  722  842  884 1016 1062 1412 1466
 1634 1692 1872 1934]
memory = 4102.836224
int3c2e [1/1], AO [0:28], ncol = 7396
kpt = [-0.45987811 -0.45987811  0.        ]
adapted_ji_idx = [ 253  277  355  383  473  505  757  797  923  967 1105 1153 1517 1573
 1747 1807 1993 2057]
memory = 4044.500992
int3c2e [1/1], AO [0:28], ncol = 7396
Symmetry pattern (k + [ 1.37963432e+00 -4.59878107e-01 -2.77555756e-17])*a= 2n pi
    make_kpt for [129 144 167 170]
kpt = [ 1.37963432 -0.45987811 -0.91975621]
adapted_ji_idx = [1182 1232 1388 1442 1610 1668]
memory = 4044.034048
int3c2e [1/1], AO [0:28], ncol = 7396
kpt = [ 4.59878107e-01 -1.37963432e+00  2.77555756e-17]
adapted_ji_idx = [1279 1331 1493 1549 1723 1783]
memory = 4101.353472
int3c2e [1/1], AO [0:28], ncol = 7396
kpt = [ 0.45987811  0.45987811 -1.83951243]
adapted_ji_idx = [1832 1894]
memory = 4101.890048
int3c2e [1/1], AO [0:28], ncol = 7396
kpt = [-0.45987811 -0.45987811 -0.91975621]
adapted_ji_idx = [1953 2017]
memory = 4102.84032
int3c2e [1/1], AO [0:28], ncol = 7396
Cholesky decomposition for j2c at kpt 40
Symmetry pattern (k - [ 1.60957338 -0.22993905 -0.22993905])*a= 2n pi
    make_kpt for uniq_kptji_ids [40 44 56 57]
kpt = [ 1.60957338 -0.22993905 -0.22993905]
adapted_ji_idx = [ 151  559 1223]
memory = 4101.578752
int3c2e [1/1], AO [0:28], ncol = 7396
kpt = [ 0.68981716 -1.14969527  0.68981716]
adapted_ji_idx = [ 165  184  204  589  624  660 1269 1320 1372]
memory = 4101.873664
int3c2e [1/1], AO [0:28], ncol = 7396
kpt = [ 0.68981716  0.68981716 -1.14969527]
adapted_ji_idx = [ 213  307  417  685  843 1017 1413 1635 1873]
memory = 4103.524352
int3c2e [1/1], AO [0:28], ncol = 7396
kpt = [-0.22993905 -0.22993905 -0.22993905]
adapted_ji_idx = [ 231  254  278  329  356  384  443  474  506  719  758  798  881  924
  968 1059 1106 1154 1463 1518 1574 1689 1748 1808 1931 1994 2058]
memory = 4103.794688
int3c2e [1/1], AO [0:28], ncol = 7396
Symmetry pattern (k + [ 1.60957338 -0.22993905 -0.22993905])*a= 2n pi
    make_kpt for [128 148 166 171]
kpt = [ 1.14969527 -0.68981716 -0.68981716]
adapted_ji_idx = [1181 1231 1282 1387 1441 1496 1609 1667 1726]
memory = 4044.087296
int3c2e [1/1], AO [0:28], ncol = 7396
kpt = [ 0.22993905 -1.60957338  0.22993905]
adapted_ji_idx = [1330 1548 1782]
memory = 4097.896448
int3c2e [1/1], AO [0:28], ncol = 7396
kpt = [ 0.22993905  0.22993905 -1.60957338]
adapted_ji_idx = [1831 1893 1956]
memory = 4100.096
int3c2e [1/1], AO [0:28], ncol = 7396
kpt = [-0.68981716 -0.68981716 -0.68981716]
adapted_ji_idx = [2016]
memory = 4102.066176
int3c2e [1/1], AO [0:28], ncol = 7396
Cholesky decomposition for j2c at kpt 74
Symmetry pattern (k - [ 0.45987811 -0.45987811 -0.45987811])*a= 2n pi
    make_kpt for uniq_kptji_ids [74]
kpt = [ 0.45987811 -0.45987811 -0.45987811]
adapted_ji_idx = [ 528  562  597  633  670  708  747  787  828  870  913  957 1002 1048
 1095 1143 1192 1242 1293 1345 1398 1452 1507 1563 1620 1678 1737 1797
 1858 1920 1983 2047]
memory = 4101.115904
int3c2e [1/1], AO [0:28], ncol = 7396
Symmetry pattern (k + [ 0.45987811 -0.45987811 -0.45987811])*a= 2n pi
    make_kpt for [74]
Cholesky decomposition for j2c at kpt 75
Symmetry pattern (k - [ 0.68981716 -0.22993905 -0.68981716])*a= 2n pi
    make_kpt for uniq_kptji_ids [75 98]
kpt = [ 0.68981716 -0.22993905 -0.68981716]
adapted_ji_idx = [ 529  563  598  671  709  748  829  871  914 1003 1049 1096 1193 1243
 1294 1399 1453 1508 1621 1679 1738 1859 1921 1984]
memory = 4045.287424
int3c2e [1/1], AO [0:28], ncol = 7396
kpt = [-0.22993905 -1.14969527  0.22993905]
adapted_ji_idx = [ 630  784  954 1140 1342 1560 1794 2044]
memory = 4045.344768
int3c2e [1/1], AO [0:28], ncol = 7396
Symmetry pattern (k + [ 0.68981716 -0.22993905 -0.68981716])*a= 2n pi
    make_kpt for [77 90]
kpt = [ 1.14969527  0.22993905 -1.14969527]
adapted_ji_idx = [ 531  673  831 1005 1195 1401 1623 1861]
memory = 4102.012928
int3c2e [1/1], AO [0:28], ncol = 7396
kpt = [ 0.22993905 -0.68981716 -0.22993905]
adapted_ji_idx = [ 561  596  632  707  746  786  869  912  956 1047 1094 1142 1241 1292
 1344 1451 1506 1562 1677 1736 1796 1919 1982 2046]
memory = 4101.668864
int3c2e [1/1], AO [0:28], ncol = 7396
Cholesky decomposition for j2c at kpt 76
Symmetry pattern (k - [ 0.91975621  0.         -0.91975621])*a= 2n pi
    make_kpt for uniq_kptji_ids [76 94]
kpt = [ 0.91975621  0.         -0.91975621]
adapted_ji_idx = [ 530  564  672  710  830  872 1004 1050 1194 1244 1400 1454 1622 1680
 1860 1922]
memory = 4044.722176
int3c2e [1/1], AO [0:28], ncol = 7396
kpt = [ 0.         -0.91975621  0.        ]
adapted_ji_idx = [ 595  631  745  785  911  955 1093 1141 1291 1343 1505 1561 1735 1795
 1981 2045]
memory = 4103.266304
int3c2e [1/1], AO [0:28], ncol = 7396
Symmetry pattern (k + [ 0.91975621  0.         -0.91975621])*a= 2n pi
    make_kpt for [76 94]
Cholesky decomposition for j2c at kpt 78
Symmetry pattern (k - [ 0.68981716 -0.68981716 -0.22993905])*a= 2n pi
    make_kpt for uniq_kptji_ids [ 78 116]
kpt = [ 0.68981716 -0.68981716 -0.22993905]
adapted_ji_idx = [ 532  566  601  637  674  712  751  791  832  874  917  961 1196 1246
 1297 1349 1402 1456 1511 1567 1624 1682 1741 1801]
memory = 4103.08608
int3c2e [1/1], AO [0:28], ncol = 7396
kpt = [-0.22993905  0.22993905 -1.14969527]
adapted_ji_idx = [ 990 1036 1083 1131 1846 1908 1971 2035]
memory = 4045.840384
int3c2e [1/1], AO [0:28], ncol = 7396
Symmetry pattern (k + [ 0.68981716 -0.68981716 -0.22993905])*a= 2n pi
    make_kpt for [ 86 102]
kpt = [ 1.14969527 -1.14969527  0.22993905]
adapted_ji_idx = [ 540  574  609  645 1204 1254 1305 1357]
memory = 4096.06144
int3c2e [1/1], AO [0:28], ncol = 7396
kpt = [ 0.22993905 -0.22993905 -0.68981716]
adapted_ji_idx = [ 666  704  743  783  824  866  909  953  998 1044 1091 1139 1394 1448
 1503 1559 1616 1674 1733 1793 1854 1916 1979 2043]
memory = 4101.28384
int3c2e [1/1], AO [0:28], ncol = 7396
Cholesky decomposition for j2c at kpt 79
Symmetry pattern (k - [ 0.91975621 -0.45987811 -0.45987811])*a= 2n pi
    make_kpt for uniq_kptji_ids [ 79  99 117 122]
kpt = [ 0.91975621 -0.45987811 -0.45987811]
adapted_ji_idx = [ 533  567  602  675  713  752  833  875  918 1197 1247 1298 1403 1457
 1512 1625 1683 1742]
memory = 4044.632064
int3c2e [1/1], AO [0:28], ncol = 7396
kpt = [ 0.         -1.37963432  0.45987811]
adapted_ji_idx = [ 634  788  958 1346 1564 1798]
memory = 4045.606912
int3c2e [1/1], AO [0:28], ncol = 7396
kpt = [ 0.          0.45987811 -1.37963432]
adapted_ji_idx = [ 991 1037 1084 1847 1909 1972]
memory = 4098.973696
int3c2e [1/1], AO [0:28], ncol = 7396
kpt = [-0.91975621 -0.45987811 -0.45987811]
adapted_ji_idx = [1128 2032]
memory = 4107.628544
int3c2e [1/1], AO [0:28], ncol = 7396
Symmetry pattern (k + [ 0.91975621 -0.45987811 -0.45987811])*a= 2n pi
    make_kpt for [ 89  93 105 106]
kpt = [ 1.83951243 -0.45987811 -0.45987811]
adapted_ji_idx = [ 543 1207]
memory = 4106.551296
int3c2e [1/1], AO [0:28], ncol = 7396
kpt = [ 0.91975621 -1.37963432  0.45987811]
adapted_ji_idx = [ 573  608  644 1253 1304 1356]
memory = 4105.904128
int3c2e [1/1], AO [0:28], ncol = 7396
kpt = [ 0.91975621  0.45987811 -1.37963432]
adapted_ji_idx = [ 669  827 1001 1397 1619 1857]
memory = 4105.969664
int3c2e [1/1], AO [0:28], ncol = 7396
kpt = [ 0.         -0.45987811 -0.45987811]
adapted_ji_idx = [ 703  742  782  865  908  952 1043 1090 1138 1447 1502 1558 1673 1732
 1792 1915 1978 2042]
memory = 4106.211328
int3c2e [1/1], AO [0:28], ncol = 7396
Cholesky decomposition for j2c at kpt 80
Symmetry pattern (k - [ 1.14969527 -0.22993905 -0.68981716])*a= 2n pi
    make_kpt for uniq_kptji_ids [ 80  95 118 121]
kpt = [ 1.14969527 -0.22993905 -0.68981716]
adapted_ji_idx = [ 534  568  676  714  834  876 1198 1248 1404 1458 1626 1684]
memory = 4044.337152
int3c2e [1/1], AO [0:28], ncol = 7396
kpt = [ 0.22993905 -1.14969527  0.22993905]
adapted_ji_idx = [ 599  635  749  789  915  959 1295 1347 1509 1565 1739 1799]
memory = 4100.882432
int3c2e [1/1], AO [0:28], ncol = 7396
kpt = [ 0.22993905  0.68981716 -1.60957338]
adapted_ji_idx = [ 992 1038 1848 1910]
memory = 4105.089024
int3c2e [1/1], AO [0:28], ncol = 7396
kpt = [-0.68981716 -0.22993905 -0.68981716]
adapted_ji_idx = [1081 1129 1969 2033]
memory = 4104.97024
int3c2e [1/1], AO [0:28], ncol = 7396
Symmetry pattern (k + [ 1.14969527 -0.22993905 -0.68981716])*a= 2n pi
    make_kpt for [ 88  97 104 107]
kpt = [ 1.60957338 -0.68981716 -0.22993905]
adapted_ji_idx = [ 542  576 1206 1256]
memory = 4104.404992
int3c2e [1/1], AO [0:28], ncol = 7396
kpt = [ 0.68981716 -1.60957338  0.68981716]
adapted_ji_idx = [ 607  643 1303 1355]
memory = 4108.550144
int3c2e [1/1], AO [0:28], ncol = 7396
kpt = [ 0.68981716  0.22993905 -1.14969527]
adapted_ji_idx = [ 668  706  826  868 1000 1046 1396 1450 1618 1676 1856 1918]
memory = 4108.742656
int3c2e [1/1], AO [0:28], ncol = 7396
kpt = [-0.22993905 -0.68981716 -0.22993905]
adapted_ji_idx = [ 741  781  907  951 1089 1137 1501 1557 1731 1791 1977 2041]
memory = 4109.201408
int3c2e [1/1], AO [0:28], ncol = 7396
Cholesky decomposition for j2c at kpt 81
Symmetry pattern (k - [ 1.37963432  0.         -0.91975621])*a= 2n pi
    make_kpt for uniq_kptji_ids [ 81  91 119 120]
kpt = [ 1.37963432  0.         -0.91975621]
adapted_ji_idx = [ 535  677  835 1199 1405 1627]
memory = 4109.324288
int3c2e [1/1], AO [0:28], ncol = 7396
kpt = [ 0.45987811 -0.91975621  0.        ]
adapted_ji_idx = [ 565  600  636  711  750  790  873  916  960 1245 1296 1348 1455 1510
 1566 1681 1740 1800]
memory = 4109.221888
int3c2e [1/1], AO [0:28], ncol = 7396
kpt = [ 0.45987811  0.91975621 -1.83951243]
adapted_ji_idx = [ 993 1849]
memory = 4044.947456
int3c2e [1/1], AO [0:28], ncol = 7396
kpt = [-0.45987811  0.         -0.91975621]
adapted_ji_idx = [1035 1082 1130 1907 1970 2034]
memory = 4100.005888
int3c2e [1/1], AO [0:28], ncol = 7396
Symmetry pattern (k + [ 1.37963432  0.         -0.91975621])*a= 2n pi
    make_kpt for [ 87 101 103 108]
kpt = [ 1.37963432e+00 -9.19756214e-01 -5.55111512e-17]
adapted_ji_idx = [ 541  575  610 1205 1255 1306]
memory = 4100.145152
int3c2e [1/1], AO [0:28], ncol = 7396
kpt = [ 0.45987811 -1.83951243  0.91975621]
adapted_ji_idx = [ 642 1354]
memory = 4100.399104
int3c2e [1/1], AO [0:28], ncol = 7396
kpt = [ 0.45987811  0.         -0.91975621]
adapted_ji_idx = [ 667  705  744  825  867  910  999 1045 1092 1395 1449 1504 1617 1675
 1734 1855 1917 1980]
memory = 4100.100096
int3c2e [1/1], AO [0:28], ncol = 7396
kpt = [-4.59878107e-01 -9.19756214e-01  2.77555756e-17]
adapted_ji_idx = [ 780  950 1136 1556 1790 2040]
memory = 4045.7216
int3c2e [1/1], AO [0:28], ncol = 7396
Cholesky decomposition for j2c at kpt 82
Symmetry pattern (k - [ 0.91975621 -0.91975621  0.        ])*a= 2n pi
    make_kpt for uniq_kptji_ids [ 82 109]
kpt = [ 0.91975621 -0.91975621  0.        ]
adapted_ji_idx = [ 536  570  605  641  678  716  755  795 1200 1250 1301 1353 1406 1460
 1515 1571]
memory = 4107.636736
int3c2e [1/1], AO [0:28], ncol = 7396
kpt = [ 0.          0.         -0.91975621]
adapted_ji_idx = [ 820  862  905  949  994 1040 1087 1135 1612 1670 1729 1789 1850 1912
 1975 2039]
memory = 4108.214272
int3c2e [1/1], AO [0:28], ncol = 7396
Symmetry pattern (k + [ 0.91975621 -0.91975621  0.        ])*a= 2n pi
    make_kpt for [ 82 109]
Cholesky decomposition for j2c at kpt 83
Symmetry pattern (k - [ 1.14969527 -0.68981716 -0.22993905])*a= 2n pi
    make_kpt for uniq_kptji_ids [ 83 100 110 115]
kpt = [ 1.14969527 -0.68981716 -0.22993905]
adapted_ji_idx = [ 537  571  606  679  717  756 1201 1251 1302 1407 1461 1516]
memory = 4107.5712
int3c2e [1/1], AO [0:28], ncol = 7396
kpt = [ 0.22993905 -1.60957338  0.68981716]
adapted_ji_idx = [ 638  792 1350 1568]
memory = 4107.853824
int3c2e [1/1], AO [0:28], ncol = 7396
kpt = [ 0.22993905  0.22993905 -1.14969527]
adapted_ji_idx = [ 821  863  906  995 1041 1088 1613 1671 1730 1851 1913 1976]
memory = 4107.096064
int3c2e [1/1], AO [0:28], ncol = 7396
kpt = [-0.68981716 -0.68981716 -0.22993905]
adapted_ji_idx = [ 946 1132 1786 2036]
memory = 4107.32544
int3c2e [1/1], AO [0:28], ncol = 7396
Symmetry pattern (k + [ 1.14969527 -0.68981716 -0.22993905])*a= 2n pi
    make_kpt for [ 85  92 112 113]
kpt = [ 1.60957338 -0.22993905 -0.68981716]
adapted_ji_idx = [ 539  681 1203 1409]
memory = 4106.993664
int3c2e [1/1], AO [0:28], ncol = 7396
kpt = [ 0.68981716 -1.14969527  0.22993905]
adapted_ji_idx = [ 569  604  640  715  754  794 1249 1300 1352 1459 1514 1570]
memory = 4106.309632
int3c2e [1/1], AO [0:28], ncol = 7396
kpt = [ 0.68981716  0.68981716 -1.60957338]
adapted_ji_idx = [ 823  997 1615 1853]
memory = 4108.558336
int3c2e [1/1], AO [0:28], ncol = 7396
kpt = [-0.22993905 -0.22993905 -0.68981716]
adapted_ji_idx = [ 861  904  948 1039 1086 1134 1669 1728 1788 1911 1974 2038]
memory = 4108.005376
int3c2e [1/1], AO [0:28], ncol = 7396
Cholesky decomposition for j2c at kpt 84
Symmetry pattern (k - [ 1.37963432 -0.45987811 -0.45987811])*a= 2n pi
    make_kpt for uniq_kptji_ids [ 84  96 111 114]
kpt = [ 1.37963432 -0.45987811 -0.45987811]
adapted_ji_idx = [ 538  572  680  718 1202 1252 1408 1462]
memory = 4108.214272
int3c2e [1/1], AO [0:28], ncol = 7396
kpt = [ 0.45987811 -1.37963432  0.45987811]
adapted_ji_idx = [ 603  639  753  793 1299 1351 1513 1569]
memory = 4107.808768
int3c2e [1/1], AO [0:28], ncol = 7396
kpt = [ 0.45987811  0.45987811 -1.37963432]
adapted_ji_idx = [ 822  864  996 1042 1614 1672 1852 1914]
memory = 4107.640832
int3c2e [1/1], AO [0:28], ncol = 7396
kpt = [-0.45987811 -0.45987811 -0.45987811]
adapted_ji_idx = [ 903  947 1085 1133 1727 1787 1973 2037]
memory = 4108.419072
int3c2e [1/1], AO [0:28], ncol = 7396
Symmetry pattern (k + [ 1.37963432 -0.45987811 -0.45987811])*a= 2n pi
    make_kpt for [ 84  96 111 114]
    CPU time for j3c 108149.53 sec, wall time   4236.63 sec
    CPU time for Init get_k_kpts 108150.07 sec, wall time   4236.65 sec
    CPU time for get_k_kpts: make_kpt ki>=kj (0,*)      1.84 sec, wall time      0.15 sec
    CPU time for get_k_kpts: make_kpt ki>=kj (1,*)      7.68 sec, wall time      0.25 sec
    CPU time for get_k_kpts: make_kpt ki>=kj (2,*)     11.71 sec, wall time      0.37 sec
    CPU time for get_k_kpts: make_kpt ki>=kj (3,*)     13.19 sec, wall time      0.42 sec
    CPU time for get_k_kpts: make_kpt ki>=kj (4,*)     15.00 sec, wall time      0.48 sec
    CPU time for get_k_kpts: make_kpt ki>=kj (5,*)     19.24 sec, wall time      0.60 sec
    CPU time for get_k_kpts: make_kpt ki>=kj (6,*)     19.44 sec, wall time      0.61 sec
    CPU time for get_k_kpts: make_kpt ki>=kj (7,*)     21.72 sec, wall time      0.68 sec
    CPU time for get_k_kpts: make_kpt ki>=kj (8,*)     26.75 sec, wall time      0.84 sec
    CPU time for get_k_kpts: make_kpt ki>=kj (9,*)     29.98 sec, wall time      0.94 sec
    CPU time for get_k_kpts: make_kpt ki>=kj (10,*)     32.35 sec, wall time      1.02 sec
    CPU time for get_k_kpts: make_kpt ki>=kj (11,*)     31.58 sec, wall time      1.01 sec
    CPU time for get_k_kpts: make_kpt ki>=kj (12,*)     35.99 sec, wall time      1.15 sec
    CPU time for get_k_kpts: make_kpt ki>=kj (13,*)     33.31 sec, wall time      1.05 sec
    CPU time for get_k_kpts: make_kpt ki>=kj (14,*)     40.54 sec, wall time      1.30 sec
    CPU time for get_k_kpts: make_kpt ki>=kj (15,*)     48.13 sec, wall time      1.53 sec
    CPU time for get_k_kpts: make_kpt ki>=kj (16,*)     53.70 sec, wall time      1.71 sec
    CPU time for get_k_kpts: make_kpt ki>=kj (17,*)     44.55 sec, wall time      1.40 sec
    CPU time for get_k_kpts: make_kpt ki>=kj (18,*)     43.69 sec, wall time      1.37 sec
    CPU time for get_k_kpts: make_kpt ki>=kj (19,*)     57.71 sec, wall time      1.81 sec
    CPU time for get_k_kpts: make_kpt ki>=kj (20,*)     52.65 sec, wall time      1.67 sec
    CPU time for get_k_kpts: make_kpt ki>=kj (21,*)     56.22 sec, wall time      1.78 sec
    CPU time for get_k_kpts: make_kpt ki>=kj (22,*)     67.21 sec, wall time      2.11 sec
    CPU time for get_k_kpts: make_kpt ki>=kj (23,*)     59.47 sec, wall time      1.88 sec
    CPU time for get_k_kpts: make_kpt ki>=kj (24,*)     56.98 sec, wall time      1.79 sec
    CPU time for get_k_kpts: make_kpt ki>=kj (25,*)     59.90 sec, wall time      1.88 sec
    CPU time for get_k_kpts: make_kpt ki>=kj (26,*)     61.11 sec, wall time      1.92 sec
    CPU time for get_k_kpts: make_kpt ki>=kj (27,*)     64.60 sec, wall time      2.04 sec
    CPU time for get_k_kpts: make_kpt ki>=kj (28,*)     81.75 sec, wall time      2.57 sec
    CPU time for get_k_kpts: make_kpt ki>=kj (29,*)     86.54 sec, wall time      2.72 sec
    CPU time for get_k_kpts: make_kpt ki>=kj (30,*)     86.69 sec, wall time      2.73 sec
    CPU time for get_k_kpts: make_kpt ki>=kj (31,*)     89.30 sec, wall time      2.81 sec
    CPU time for get_k_kpts: make_kpt ki>=kj (32,*)     93.91 sec, wall time      2.95 sec
    CPU time for get_k_kpts: make_kpt ki>=kj (33,*)     95.43 sec, wall time      3.01 sec
    CPU time for get_k_kpts: make_kpt ki>=kj (34,*)     97.85 sec, wall time      3.08 sec
    CPU time for get_k_kpts: make_kpt ki>=kj (35,*)    101.40 sec, wall time      3.18 sec
    CPU time for get_k_kpts: make_kpt ki>=kj (36,*)    102.69 sec, wall time      3.24 sec
    CPU time for get_k_kpts: make_kpt ki>=kj (37,*)    107.41 sec, wall time      3.38 sec
    CPU time for get_k_kpts: make_kpt ki>=kj (38,*)    112.77 sec, wall time      3.55 sec
    CPU time for get_k_kpts: make_kpt ki>=kj (39,*)    110.72 sec, wall time      3.49 sec
    CPU time for get_k_kpts: make_kpt ki>=kj (40,*)    117.81 sec, wall time      3.71 sec
    CPU time for get_k_kpts: make_kpt ki>=kj (41,*)    118.44 sec, wall time      3.72 sec
    CPU time for get_k_kpts: make_kpt ki>=kj (42,*)    121.03 sec, wall time      3.80 sec
    CPU time for get_k_kpts: make_kpt ki>=kj (43,*)    111.03 sec, wall time      3.52 sec
    CPU time for get_k_kpts: make_kpt ki>=kj (44,*)    107.08 sec, wall time      3.38 sec
    CPU time for get_k_kpts: make_kpt ki>=kj (45,*)    107.04 sec, wall time      3.38 sec
    CPU time for get_k_kpts: make_kpt ki>=kj (46,*)    104.97 sec, wall time      3.30 sec
    CPU time for get_k_kpts: make_kpt ki>=kj (47,*)    107.04 sec, wall time      3.37 sec
    CPU time for get_k_kpts: make_kpt ki>=kj (48,*)    108.08 sec, wall time      3.40 sec
    CPU time for get_k_kpts: make_kpt ki>=kj (49,*)    117.09 sec, wall time      3.69 sec
    CPU time for get_k_kpts: make_kpt ki>=kj (50,*)    114.66 sec, wall time      3.60 sec
    CPU time for get_k_kpts: make_kpt ki>=kj (51,*)    115.93 sec, wall time      3.66 sec
    CPU time for get_k_kpts: make_kpt ki>=kj (52,*)    121.23 sec, wall time      3.81 sec
    CPU time for get_k_kpts: make_kpt ki>=kj (53,*)    156.09 sec, wall time      4.92 sec
    CPU time for get_k_kpts: make_kpt ki>=kj (54,*)    128.49 sec, wall time      4.11 sec
    CPU time for get_k_kpts: make_kpt ki>=kj (55,*)    165.97 sec, wall time      5.27 sec
    CPU time for get_k_kpts: make_kpt ki>=kj (56,*)    158.22 sec, wall time      5.01 sec
    CPU time for get_k_kpts: make_kpt ki>=kj (57,*)    131.21 sec, wall time      4.13 sec
    CPU time for get_k_kpts: make_kpt ki>=kj (58,*)    133.20 sec, wall time      4.18 sec
    CPU time for get_k_kpts: make_kpt ki>=kj (59,*)    135.63 sec, wall time      4.26 sec
    CPU time for get_k_kpts: make_kpt ki>=kj (60,*)    141.79 sec, wall time      4.47 sec
    CPU time for get_k_kpts: make_kpt ki>=kj (61,*)    141.45 sec, wall time      4.45 sec
    CPU time for get_k_kpts: make_kpt ki>=kj (62,*)    143.57 sec, wall time      4.51 sec
    CPU time for get_k_kpts: make_kpt ki>=kj (63,*)    147.04 sec, wall time      4.62 sec
Monkhorst pack size [4 4 4] ew_eta 1.5476658029379562 ew_cut 4.544470118544479
Ewald components = 0, -0.873305490231665, 0.789411828243223
    CPU time for get_j pass 1     73.90 sec, wall time      2.44 sec
    CPU time for get_j pass 2      6.24 sec, wall time      1.76 sec
    CPU time for vj and vk 113524.79 sec, wall time   4407.91 sec
Ewald components = 2.22177160975447e-132, -245.992357858762, 217.051170209755
E1 = (-56.247678763958824-4.757533342975018e-15j)  E_coul = (4.768828773224135+9.82287168271867e-17j)
init E= -80.4200376397415
cond(S) = [3.58358398e+09 4.14416627e+08 1.72220972e+09 4.14416625e+08
 4.14416626e+08 6.05822344e+07 1.41566332e+08 1.17130864e+09
 1.72220968e+09 1.41566332e+08 6.00223973e+07 1.41566332e+08
 4.14416624e+08 1.17130861e+09 1.41566332e+08 6.05822345e+07
 4.14416613e+08 6.05822344e+07 1.41566332e+08 1.17130866e+09
 6.05822343e+07 4.14416625e+08 1.17130874e+09 1.41566334e+08
 1.41566333e+08 1.17130864e+09 1.41566332e+08 3.08947324e+07
 1.17130865e+09 1.41566332e+08 3.08947324e+07 1.41566332e+08
 1.72220967e+09 1.41566332e+08 6.00223973e+07 1.41566332e+08
 1.41566333e+08 1.17130863e+09 1.41566332e+08 3.08947323e+07
 6.00223973e+07 1.41566334e+08 1.72220967e+09 1.41566333e+08
 1.41566333e+08 3.08947324e+07 1.41566332e+08 1.17130860e+09
 4.14416620e+08 1.17130854e+09 1.41566331e+08 6.05822343e+07
 1.17130855e+09 1.41566331e+08 3.08947324e+07 1.41566331e+08
 1.41566332e+08 3.08947324e+07 1.41566332e+08 1.17130854e+09
 6.05822344e+07 1.41566333e+08 1.17130869e+09 4.14416628e+08]
    CPU time for initialize scf 116709.83 sec, wall time   4512.51 sec
HOMO = 0.463773811757  LUMO = 0.733316760506
     k-point                  mo_energy
   0 ( 0.000  0.000  0.000)   [-14.97547331  -7.00739304  -1.75001729   0.46376298   0.46377381
   0.46377381] [  0.89801587   0.99029047   0.990402     0.990402     1.61762672
   1.74474733   1.74474733   1.76804776   1.76804778   1.76805371
   2.1253792    2.54739694   2.5473972    2.54741394   3.31328929
   3.31329141   3.31329166   3.57078031   3.57078031   3.62988957
   3.62988957   3.62989543   3.76992638   3.76993439   3.76993679
   4.32738456   4.51985158   4.51986187   4.51986658   4.66876754
   4.66876754   4.75010578   4.75011033   4.75011654   4.99043848
   5.20415193   5.20421757   5.20423612   6.00110499   6.05998127
   6.05998401   6.05998401   6.14673202   6.14687237   6.14688955
   6.79248682   6.792501     6.79250184   6.93676949   6.93676949
   7.54575381   8.28428596   8.28435722   8.2843698   13.88780099
  13.88784061  13.88785297  13.91799081  23.71696694  23.71697162
  23.71697696  24.06382596  38.04868098  38.04868098  38.11170331
  38.11170332  38.11170717  40.11434581  40.11434581  40.44271611
  40.44271671  40.4427427   58.77090794  58.77091208  58.77091675
  63.71411576 111.27685927 111.2768597  111.27687607 118.26428482]
   1 ( 0.000  0.000  0.250)   [-14.97256195  -7.00306963  -1.34964994   0.11718441   0.4111554
   0.41122283] [  0.93948443   1.05180837   1.05190698   1.13728889   1.566961
   1.5764702    1.57649281   1.76669146   2.20564778   2.2056601
   2.38672793   2.38673341   2.39825875   2.48820227   2.98925674
   2.98926364   3.37255683   3.43163682   3.43166293   3.63439352
   3.63441974   3.70469412   3.71695064   3.94913317   3.94915204
   3.9701596    4.28717913   4.28719312   4.33961145   4.44629478
   4.44631274   4.72544545   4.72546852   4.84315954   4.96925843
   5.12796642   5.12798271   5.38335627   5.82551616   5.89323616
   5.94527369   5.94529212   6.27385219   6.27385777   6.54936797
   6.81317281   6.8131822    7.14338616   7.27377068   7.27379276
   7.75681829   7.75682428   7.85629716   8.56892538  13.06358281
  13.40641597  13.40643191  15.97864316  23.04204099  23.5322068
  23.53221226  25.40630986  38.06794224  38.06794359  38.12321869
  38.12322337  38.14135917  40.1711038   40.17110797  40.30801901
  40.3080386   40.38621101  58.1288273   58.36616722  58.36617263
  67.4313923  110.8561237  111.13799863 111.13801341 120.26203476]
   2 ( 0.000  0.000  0.500)   [-14.96988502  -6.99944579  -0.76624456  -0.33999759   0.3704675
   0.37061026] [  0.93843567   1.05984199   1.05995846   1.23719037   1.57441041
   1.73103456   1.73104445   1.74266982   2.03432645   2.03436228
   2.48381943   2.73371461   2.73371755   2.9113568    2.95971964
   2.95972944   3.03672077   3.03674219   3.1836518    3.50794828
   3.55682239   3.55683103   3.65678707   3.65679942   3.79557133
   3.84605705   4.07109788   4.07110142   4.27400007   4.58225732
   4.58226398   4.82923501   5.06676808   5.16940809   5.19328733
   5.19343964   5.54043093   5.54077354   5.58027592   5.85947708
   5.85950256   6.23192422   6.41041464   6.41045491   6.62856893
   6.8465552    6.84673173   7.29732167   7.2974455    7.41005472
   7.73580683   7.7359078    8.18595275   8.85907382  12.822575
  13.52279994  13.52287481  16.82182764  22.94762769  23.48363279
  23.48363458  25.97227124  38.07071215  38.07071606  38.14018991
  38.1401936   38.17719569  40.09492702  40.09493401  40.32096086
  40.34969365  40.34970607  57.96149274  58.41490278  58.41490646
  68.69951061 110.66512701 111.09413014 111.09414424 121.45256587]
   3 ( 0.000  0.000  0.750)   [-14.97256195  -7.00306963  -1.34964994   0.11718441   0.4111554
   0.41122283] [  0.93948443   1.05180837   1.05190698   1.13728889   1.566961
   1.57647019   1.5764928    1.76669146   2.20564767   2.20565999
   2.38672765   2.38673318   2.39825875   2.48820226   2.9892564
   2.98926323   3.37255683   3.43163679   3.43166288   3.63439295
   3.63441932   3.70469412   3.71695062   3.94913112   3.94915031
   3.97015957   4.28717886   4.2871929    4.33961144   4.44629
   4.44630712   4.72543925   4.72546027   4.84315951   4.96925841
   5.12796244   5.12797795   5.38335618   5.82551616   5.89323603
   5.94526972   5.94528815   6.27385158   6.27385716   6.54936789
   6.81317222   6.81318152   7.14338613   7.27376477   7.27378568
   7.75681723   7.75682338   7.85629707   8.56892519  13.06358281
  13.40641296  13.40642893  15.97864305  23.04204098  23.53220619
  23.53221171  25.4063098   38.06794222  38.06794357  38.12321869
  38.12322336  38.14135916  40.17110367  40.17110786  40.30801901
  40.3080386   40.38621101  58.1288273   58.36616682  58.36617229
  67.43139226 110.8561237  111.13799855 111.13801335 120.26203475]
   4 (-0.000  0.250  0.000)   [-14.97256195  -7.00306963  -1.34964994   0.11718441   0.4111554
   0.41122283] [  0.93948443   1.05180837   1.05190698   1.13728889   1.56696101
   1.57647023   1.57649273   1.76669147   2.2056468    2.2056605
   2.38672574   2.38673432   2.39825876   2.48820234   2.98925824
[...]
   6.29262478   6.45050497   6.46697031   6.6006034    6.60375325
   6.88005372   6.96537631   7.07122848   7.14557974   7.57399287
   7.72775307   7.90671425   7.98571232   8.36663115  13.33616902
  13.53304001  13.55682111  15.95329624  22.99915703  23.33973636
  23.78572753  25.24732502  38.01284815  38.02256769  38.10711093
  38.11073254  38.15673374  40.13790655  40.17203535  40.32518208
  40.38634587  40.4523246   58.28476412  58.43602112  58.46668173
  67.25350349 110.74807839 110.99115436 111.30380277 120.22459113]
  53 ( 0.750  0.250  0.250)   [-14.90512841  -7.0057684   -0.50611914  -0.14247426   0.03400792
   0.10508208] [  0.92659633   1.16835806   1.26073323   1.26701115   1.48958209
   1.74964656   1.79271352   1.91296707   2.10951315   2.30884481
   2.43076763   2.47790065   2.68693662   2.69495988   2.80323428
   2.94211366   3.05892187   3.10917876   3.21180431   3.3224757
   3.42965091   3.56895409   3.62472471   3.86789326   3.87061643
   3.90484329   4.1693024    4.21412457   4.40734007   4.42157669
   4.67734562   4.71311597   4.757603     5.12746718   5.19143448
   5.30379954   5.3947609    5.6608136    5.67865269   5.84431238
   6.05778041   6.30582862   6.386055     6.44665425   6.71447486
   6.89083015   7.00426157   7.2258171    7.2606765    7.54696645
   7.64028776   7.82275932   8.3603187    8.7896994   13.58069576
  13.63143181  13.89365537  17.60296736  22.91793767  23.39765899
  23.55532073  25.60625104  38.01895266  38.04647883  38.11069449
  38.11339816  38.14853206  40.16692546  40.18271124  40.23117761
  40.32815944  40.42554605  58.46071917  58.51288647  58.72043651
  70.04553172 110.68338518 111.02731747 111.16114719 120.72562553]
  54 ( 0.750  0.250  0.500)   [-14.90514057  -7.00576903  -0.45084044  -0.09901984  -0.04755224
  -0.01572064] [  1.0133582    1.21008419   1.21215675   1.27248195   1.48783117
   1.71196627   1.83307967   1.98048879   2.34532831   2.37342186
   2.3767087    2.51245094   2.57693153   2.63244866   2.89699464
   2.91138432   2.91651012   2.94297531   3.32854178   3.33172058
   3.37339769   3.50641728   3.57220954   3.57997778   3.9036113
   4.19208688   4.19623867   4.23673171   4.25830502   4.33242842
   4.5977231    4.62607003   5.13894328   5.20456333   5.28296424
   5.37882585   5.38357026   5.49436979   5.71054706   5.91639739
   5.9365282    6.051885     6.41994061   6.78713372   6.89757915
   6.92043689   7.08263123   7.13959054   7.21651936   7.64643127
   8.00404867   8.12193177   8.1419891    8.21367882  13.3518543
  14.00577903  14.05234787  16.22786304  23.15221093  23.307281
  23.91985632  25.04678645  37.99163072  38.03319336  38.10146519
  38.1448532   38.20606899  40.06536434  40.24691235  40.33937524
  40.36269712  40.47171103  58.32782409  58.7683957   58.82522676
  67.84816058 110.83578677 110.95605114 111.41155892 119.93770704]
  55 ( 0.750  0.250  0.750)   [-14.90512841  -7.0057684   -0.50611914  -0.14247426   0.03400792
   0.10508208] [  0.92659633   1.16835806   1.26073323   1.26701115   1.48958209
   1.74964656   1.79271352   1.91296706   2.10951315   2.3088448
   2.43076761   2.47790068   2.68693657   2.6949599    2.80323425
   2.94211366   3.05892182   3.10917877   3.21180422   3.32247577
   3.42965088   3.56895412   3.62472464   3.86789318   3.87061645
   3.90484317   4.16930206   4.21412445   4.40734007   4.42157641
   4.67734546   4.71311596   4.75760179   5.12746571   5.19143529
   5.30379737   5.39476133   5.66081373   5.6786521    5.84431031
   6.05778042   6.30582774   6.38605505   6.44665355   6.71447327
   6.89083029   7.00426111   7.22581714   7.26067652   7.54696621
   7.64028812   7.82275907   8.3603156    8.78968908  13.58069566
  13.63143181  13.89365518  17.60296241  22.91793764  23.397659
  23.5553204   25.60625101  38.01895266  38.04647883  38.11069449
  38.11339816  38.14853205  40.16692542  40.18271124  40.23117762
  40.32815936  40.42554599  58.46071916  58.51288647  58.72043649
  70.04553018 110.68338518 111.02731747 111.16114715 120.72562552]
  56 ( 0.750  0.500 -0.000)   [-14.90512841  -7.0057684   -0.50611914  -0.14247426   0.0340079
   0.1050821 ] [  0.92659633   1.16835806   1.26073323   1.26701115   1.48958209
   1.74964656   1.79271353   1.91296708   2.10951315   2.30884481
   2.43076763   2.47790068   2.68693671   2.69495989   2.80323428
   2.94211365   3.05892189   3.10917881   3.2118044    3.32247572
   3.42965091   3.56895415   3.62472466   3.86789337   3.87061667
   3.90484327   4.16930272   4.21412448   4.40734024   4.4215767
   4.67734556   4.71311598   4.75760396   5.12746743   5.19143447
   5.30379996   5.3947609    5.66081361   5.67865295   5.84431348
   6.05778042   6.30582925   6.3860549    6.44665482   6.71447593
   6.8908302    7.00426182   7.22581713   7.26067677   7.54696638
   7.64028772   7.82275954   8.36032075   8.78970371  13.58069588
  13.63143182  13.89365543  17.60297033  22.91793767  23.39765899
  23.55532091  25.60625109  38.01895266  38.04647883  38.11069449
  38.11339816  38.14853206  40.16692547  40.18271124  40.23117761
  40.32815948  40.42554608  58.46071917  58.51288647  58.72043652
  70.0455327  110.68338518 111.02731746 111.16114721 120.72562553]
  57 ( 0.750  0.500  0.250)   [-14.90514057  -7.00576903  -0.45084044  -0.09901984  -0.04755224
  -0.01572064] [  1.0133582    1.21008419   1.21215675   1.27248195   1.48783117
   1.71196627   1.83307967   1.98048879   2.34532832   2.37342186
   2.3767087    2.51245094   2.57693153   2.63244866   2.89699464
   2.91138432   2.91651012   2.94297531   3.32854178   3.33172058
   3.37339769   3.50641728   3.57220954   3.57997779   3.90361131
   4.19208689   4.19623869   4.23673171   4.25830502   4.33242842
   4.59772311   4.62607005   5.13894328   5.20456331   5.28296423
   5.37882583   5.38357032   5.49436976   5.71054706   5.91639739
   5.9365282    6.051885     6.41994061   6.78713375   6.8975792
   6.92043689   7.08263122   7.13959054   7.21651934   7.64643127
   8.00404865   8.12193177   8.1419891    8.21367883  13.3518543
  14.00577906  14.05234786  16.22786299  23.15221092  23.307281
  23.91985631  25.04678645  37.99163072  38.03319336  38.10146519
  38.1448532   38.20606899  40.06536434  40.24691235  40.33937524
  40.36269712  40.47171103  58.32782409  58.7683957   58.82522676
  67.84816057 110.83578676 110.95605114 111.41155892 119.93770704]
  58 ( 0.750  0.500  0.500)   [-14.90512841  -7.0057684   -0.50611914  -0.14247425   0.0340079
   0.10508208] [  0.92659633   1.16835807   1.26073323   1.26701115   1.4895821
   1.74964655   1.79271352   1.91296708   2.10951314   2.30884481
   2.43076762   2.47790056   2.68693665   2.69495985   2.80323431
   2.94211367   3.05892189   3.10917878   3.21180438   3.32247554
   3.4296509    3.56895395   3.62472473   3.86789328   3.87061641
   3.90484323   4.16930251   4.21412455   4.40734008   4.42157662
   4.67734553   4.71311594   4.75760343   5.12746694   5.19143223
   5.30379907   5.39475957   5.66081317   5.67865274   5.84431282
   6.05778036   6.30582877   6.38605463   6.44665445   6.71447499
   6.89082975   7.00426158   7.225817     7.2606767    7.54696653
   7.64028668   7.82275942   8.36031954   8.78969895  13.58069579
  13.63143178  13.8936553   17.60296812  22.91793766  23.39765897
  23.55532077  25.60625109  38.01895266  38.04647882  38.11069449
  38.11339816  38.14853206  40.16692546  40.18271123  40.23117759
  40.32815945  40.42554605  58.46071917  58.51288646  58.7204365
  70.04553201 110.68338518 111.02731747 111.16114719 120.72562553]
  59 ( 0.750  0.500  0.750)   [-1.49051183e+01 -7.00576812e+00 -5.51797159e-01 -8.52045513e-02
  1.35034469e-02  1.79065481e-01] [  1.02474535   1.15841873   1.17354578   1.26414437   1.49633682
   1.53178747   1.76074906   1.98281192   2.10523058   2.31643338
   2.35917216   2.38061732   2.72327876   2.78909455   2.83847797
   2.96211906   3.05904712   3.1577756    3.29831715   3.35678227
   3.44508822   3.58411154   3.72441731   3.80568576   3.81371372
   3.98547529   4.27657537   4.2826686    4.32638317   4.35883389
   4.48614737   4.60567897   4.67548222   4.73605603   5.23757776
   5.27462979   5.28785437   5.60685595   5.81428295   5.84711388
   6.29262452   6.45050489   6.46697324   6.60062612   6.60375317
   6.88005311   6.96538412   7.07123118   7.14557948   7.57399281
   7.72775192   7.90674489   7.98571166   8.36663095  13.33616905
  13.53304048  13.556821    15.95329614  22.99915702  23.33973675
  23.78572735  25.24732502  38.01284815  38.02256769  38.10711095
  38.11073255  38.15673374  40.13790655  40.17203534  40.32518206
  40.38634657  40.45232459  58.28476413  58.43602119  58.46668172
  67.25350345 110.74807839 110.99115441 111.30380274 120.22459113]
  60 ( 0.750  0.750  0.000)   [-14.9050965   -7.00576576  -0.63026953   0.08178819   0.13746459
   0.13746461] [  0.89989913   1.1015195    1.21559062   1.21559062   1.3890095
   1.75711975   1.84898475   1.96286585   1.96286585   2.05102978
   2.31665178   2.31665178   2.48650958   2.71888223   2.78784491
   3.17735316   3.17735319   3.38565353   3.42384497   3.42384498
   3.51764355   3.55288547   3.86755926   3.97397384   3.97397398
   4.24562149   4.33349683   4.38574173   4.3857419    4.44964141
   4.57065907   4.63367516   4.63367528   4.73396692   5.00836186
   5.00836198   5.23276874   5.63177539   5.6731965    5.67319654
   6.20074226   6.21654293   6.51080173   6.51080185   6.94500302
   6.95433056   7.05992178   7.09448314   7.09448336   7.55849841
   7.87850491   7.87850494   7.99852524   8.55243475  13.27972526
  13.36099366  13.36099368  16.66252186  23.23126825  23.77620712
  23.77620718  25.61752377  38.03636221  38.05360882  38.09785536
  38.12730957  38.12730957  40.14310336  40.17750734  40.35715267
  40.35715267  40.41321358  58.23514122  58.32468474  58.32468475
  68.64169122 110.93648385 111.30574826 111.30574827 120.9326706 ]
  61 ( 0.750  0.750  0.250)   [-14.90512841  -7.0057684   -0.50611914  -0.14247426   0.03400792
   0.10508208] [  0.92659633   1.16835806   1.26073323   1.26701115   1.48958209
   1.74964656   1.79271352   1.91296707   2.10951315   2.30884482
   2.43076763   2.47790064   2.6869367    2.69495988   2.80323428
   2.94211365   3.05892191   3.10917876   3.21180443   3.32247569
   3.42965091   3.56895409   3.62472471   3.8678933    3.87061643
   3.90484332   4.16930275   4.21412455   4.40734007   4.42157666
   4.67734559   4.71311596   4.757604     5.12746729   5.19143431
   5.30379986   5.39476087   5.66081357   5.67865298   5.84431362
   6.05778042   6.30582917   6.38605498   6.44665478   6.71447582
   6.89083012   7.00426174   7.22581708   7.26067673   7.54696637
   7.6402877    7.82275956   8.36032101   8.78970266  13.58069583
  13.6314318   13.89365538  17.60297014  22.91793768  23.39765899
  23.5553209   25.60625108  38.01895266  38.04647883  38.11069449
  38.11339816  38.14853206  40.16692547  40.18271124  40.23117761
  40.32815949  40.42554607  58.46071917  58.51288646  58.72043651
  70.04553266 110.68338519 111.02731747 111.1611472  120.72562553]
  62 ( 0.750  0.750  0.500)   [-1.49051183e+01 -7.00576812e+00 -5.51797159e-01 -8.52045514e-02
  1.35034470e-02  1.79065481e-01] [  1.02474535   1.15841873   1.17354578   1.26414437   1.4963368
   1.53178747   1.76074906   1.98281192   2.10523059   2.31643339
   2.35917196   2.38061732   2.72327628   2.78909459   2.83847795
   2.96211907   3.05904712   3.15776932   3.29831714   3.35678037
   3.44508691   3.5841117    3.72441731   3.80568577   3.81368707
   3.98547567   4.27657535   4.28266861   4.32637077   4.35883388
   4.48614738   4.60558879   4.67548203   4.73605611   5.23757884
   5.27461383   5.28785428   5.60685653   5.81427957   5.84711409
   6.29262499   6.45050501   6.46696228   6.60053752   6.60375325
   6.88005393   6.96535441   7.07122047   7.14557985   7.57399285
   7.72775395   7.90662267   7.98571296   8.36663121  13.33616901
  13.53303863  13.55682115  15.95329634  22.99915703  23.33973527
  23.78572764  25.24732505  38.01284815  38.02256769  38.10711087
  38.11073255  38.15673375  40.13790655  40.17203535  40.32518209
  40.38634384  40.45232461  58.28476412  58.43602091  58.46668173
  67.25350352 110.74807839 110.99115424 111.30380278 120.22459114]
  63 ( 0.750  0.750  0.750)   [-14.90508421  -7.00576731  -0.65337454   0.01751663   0.22427857
   0.22427857] [  1.02812028   1.06788334   1.06788334   1.22178956   1.5648359
   1.56483594   1.57376924   1.77851995   2.2038835    2.20388419
   2.39466554   2.39466692   2.4013291    2.48042303   2.99930696
   2.99930902   3.38142364   3.44829152   3.44829181   3.64134746
   3.64134989   3.71202876   3.73275281   3.94747991   3.94748975
   3.97551034   4.29420049   4.29420191   4.33989585   4.45388165
   4.45390827   4.72881852   4.72885541   4.85108065   4.98122757
   5.13254498   5.13256909   5.40345005   5.86094753   5.92109907
   5.97952695   5.97954617   6.31020308   6.31020648   6.58910072
   6.85549851   6.85550227   7.17999753   7.31877039   7.31880209
   7.80433719   7.80434191   7.89344456   8.60987678  13.05075298
  13.39527296  13.39528799  15.97012924  23.10166906  23.59148362
  23.59148662  25.46747823  38.04358635  38.04358646  38.09916424
  38.09916425  38.11739476  40.23203436  40.23203495  40.36894862
  40.36894863  40.4470689   58.0893255   58.32683772  58.32683956
  67.38527006 110.89164788 111.17352767 111.17352804 120.29162415]
    CPU time for get_k_kpts: make_kpt ki>=kj (0,*)      1.42 sec, wall time      0.06 sec
    CPU time for get_k_kpts: make_kpt ki>=kj (1,*)      6.57 sec, wall time      0.21 sec
    CPU time for get_k_kpts: make_kpt ki>=kj (2,*)      8.94 sec, wall time      0.28 sec
    CPU time for get_k_kpts: make_kpt ki>=kj (3,*)     11.32 sec, wall time      0.36 sec
    CPU time for get_k_kpts: make_kpt ki>=kj (4,*)     14.12 sec, wall time      0.44 sec
    CPU time for get_k_kpts: make_kpt ki>=kj (5,*)     16.90 sec, wall time      0.53 sec
    CPU time for get_k_kpts: make_kpt ki>=kj (6,*)     19.50 sec, wall time      0.63 sec
    CPU time for get_k_kpts: make_kpt ki>=kj (7,*)     21.59 sec, wall time      0.68 sec
    CPU time for get_k_kpts: make_kpt ki>=kj (8,*)     24.89 sec, wall time      0.78 sec
    CPU time for get_k_kpts: make_kpt ki>=kj (9,*)     26.98 sec, wall time      0.85 sec
    CPU time for get_k_kpts: make_kpt ki>=kj (10,*)     31.09 sec, wall time      0.98 sec
    CPU time for get_k_kpts: make_kpt ki>=kj (11,*)     33.01 sec, wall time      1.04 sec
    CPU time for get_k_kpts: make_kpt ki>=kj (12,*)     34.63 sec, wall time      1.09 sec
    CPU time for get_k_kpts: make_kpt ki>=kj (13,*)     38.65 sec, wall time      1.21 sec
    CPU time for get_k_kpts: make_kpt ki>=kj (14,*)     41.03 sec, wall time      1.29 sec
    CPU time for get_k_kpts: make_kpt ki>=kj (15,*)     43.73 sec, wall time      1.37 sec
    CPU time for get_k_kpts: make_kpt ki>=kj (16,*)     46.77 sec, wall time      1.47 sec
    CPU time for get_k_kpts: make_kpt ki>=kj (17,*)     48.18 sec, wall time      1.52 sec
    CPU time for get_k_kpts: make_kpt ki>=kj (18,*)     51.63 sec, wall time      1.62 sec
    CPU time for get_k_kpts: make_kpt ki>=kj (19,*)     53.38 sec, wall time      1.69 sec
    CPU time for get_k_kpts: make_kpt ki>=kj (20,*)     56.27 sec, wall time      1.77 sec
    CPU time for get_k_kpts: make_kpt ki>=kj (21,*)     59.39 sec, wall time      1.86 sec
    CPU time for get_k_kpts: make_kpt ki>=kj (22,*)     62.38 sec, wall time      1.96 sec
    CPU time for get_k_kpts: make_kpt ki>=kj (23,*)     65.76 sec, wall time      2.07 sec
    CPU time for get_k_kpts: make_kpt ki>=kj (24,*)     66.94 sec, wall time      2.12 sec
    CPU time for get_k_kpts: make_kpt ki>=kj (25,*)     69.29 sec, wall time      2.18 sec
    CPU time for get_k_kpts: make_kpt ki>=kj (26,*)     73.33 sec, wall time      2.31 sec
    CPU time for get_k_kpts: make_kpt ki>=kj (27,*)     74.58 sec, wall time      2.34 sec
    CPU time for get_k_kpts: make_kpt ki>=kj (28,*)     76.46 sec, wall time      2.41 sec
    CPU time for get_k_kpts: make_kpt ki>=kj (29,*)     82.27 sec, wall time      2.60 sec
    CPU time for get_k_kpts: make_kpt ki>=kj (30,*)     82.91 sec, wall time      2.61 sec
    CPU time for get_k_kpts: make_kpt ki>=kj (31,*)     89.48 sec, wall time      2.81 sec
    CPU time for get_k_kpts: make_kpt ki>=kj (32,*)     90.49 sec, wall time      2.85 sec
    CPU time for get_k_kpts: make_kpt ki>=kj (33,*)    108.30 sec, wall time      3.46 sec
    CPU time for get_k_kpts: make_kpt ki>=kj (34,*)     99.98 sec, wall time      3.15 sec
    CPU time for get_k_kpts: make_kpt ki>=kj (35,*)     98.87 sec, wall time      3.10 sec
    CPU time for get_k_kpts: make_kpt ki>=kj (36,*)    102.18 sec, wall time      3.21 sec
    CPU time for get_k_kpts: make_kpt ki>=kj (37,*)    105.42 sec, wall time      3.31 sec
    CPU time for get_k_kpts: make_kpt ki>=kj (38,*)    107.23 sec, wall time      3.37 sec
    CPU time for get_k_kpts: make_kpt ki>=kj (39,*)    109.76 sec, wall time      3.45 sec
    CPU time for get_k_kpts: make_kpt ki>=kj (40,*)    111.41 sec, wall time      3.50 sec
    CPU time for get_k_kpts: make_kpt ki>=kj (41,*)    111.70 sec, wall time      3.51 sec
    CPU time for get_k_kpts: make_kpt ki>=kj (42,*)    114.56 sec, wall time      3.60 sec
    CPU time for get_k_kpts: make_kpt ki>=kj (43,*)    118.48 sec, wall time      3.73 sec
    CPU time for get_k_kpts: make_kpt ki>=kj (44,*)    121.28 sec, wall time      3.81 sec
    CPU time for get_k_kpts: make_kpt ki>=kj (45,*)    124.65 sec, wall time      3.92 sec
    CPU time for get_k_kpts: make_kpt ki>=kj (46,*)    124.77 sec, wall time      3.92 sec
    CPU time for get_k_kpts: make_kpt ki>=kj (47,*)    130.62 sec, wall time      4.10 sec
    CPU time for get_k_kpts: make_kpt ki>=kj (48,*)    127.91 sec, wall time      4.03 sec
    CPU time for get_k_kpts: make_kpt ki>=kj (49,*)    131.41 sec, wall time      4.13 sec
    CPU time for get_k_kpts: make_kpt ki>=kj (50,*)    133.98 sec, wall time      4.21 sec
    CPU time for get_k_kpts: make_kpt ki>=kj (51,*)    136.85 sec, wall time      4.32 sec
    CPU time for get_k_kpts: make_kpt ki>=kj (52,*)    136.20 sec, wall time      4.29 sec
    CPU time for get_k_kpts: make_kpt ki>=kj (53,*)    140.69 sec, wall time      4.43 sec
    CPU time for get_k_kpts: make_kpt ki>=kj (54,*)    148.53 sec, wall time      4.68 sec
    CPU time for get_k_kpts: make_kpt ki>=kj (55,*)    145.32 sec, wall time      4.58 sec
    CPU time for get_k_kpts: make_kpt ki>=kj (56,*)    149.78 sec, wall time      4.70 sec
    CPU time for get_k_kpts: make_kpt ki>=kj (57,*)    152.08 sec, wall time      4.78 sec
    CPU time for get_k_kpts: make_kpt ki>=kj (58,*)    156.13 sec, wall time      4.90 sec
    CPU time for get_k_kpts: make_kpt ki>=kj (59,*)    154.29 sec, wall time      4.85 sec
    CPU time for get_k_kpts: make_kpt ki>=kj (60,*)    158.81 sec, wall time      4.99 sec
    CPU time for get_k_kpts: make_kpt ki>=kj (61,*)    160.25 sec, wall time      5.04 sec
    CPU time for get_k_kpts: make_kpt ki>=kj (62,*)    194.90 sec, wall time      6.25 sec
    CPU time for get_k_kpts: make_kpt ki>=kj (63,*)    172.90 sec, wall time      5.47 sec
Monkhorst pack size [4 4 4] ew_eta 1.5476658029379562 ew_cut 4.544470118544479
Ewald components = 0, -0.873305490231665, 0.789411828243223
    CPU time for get_j pass 1     78.25 sec, wall time      2.96 sec
    CPU time for get_j pass 2      5.80 sec, wall time      1.45 sec
    CPU time for vj and vk   5702.54 sec, wall time    181.39 sec
Ewald components = 2.22177160975447e-132, -245.992357858762, 217.051170209755
E1 = (-56.007612852916516+5.559182441331861e-13j)  E_coul = (5.664070784957721-9.070644733174881e-13j)
Extra cycle  E= -79.2847297169656  delta_E= -4.53e-12  |g|= 8.71e-06  |ddm|= 0.0468
    CPU time for scf_cycle 161018.03 sec, wall time   5924.25 sec
    CPU time for SCF 161018.11 sec, wall time   5924.29 sec
converged SCF energy = -79.2847297169656
