#INFO: **** input file is /burg/berkelbach/users/eav2136/projects/core_level_spectroscopy/01_peommp2_cbe/meanfield.py ****
#!/usr/bin/env python
import json
from pyscf.pbc import gto, scf
from pyscf.pbc.tools import lattice, pyscf_ase
from pyscf.pbc.scf import chkfile
from fileutils import load, dump
import sys

material = load("data/{}".format(sys.argv[1]))
# Create Cell
cell = gto.Cell()
ase_atom = lattice.get_ase_atom(material["formula"])
cell.atom = pyscf_ase.ase_atoms_to_pyscf(ase_atom)
cell.a = ase_atom.cell[:]
cell.unit = "B"
cell.basis = material["basis"]
cell.exp_to_discard = material["exp_to_discard"]
cell.verbose = 7
cell.build()

# Mean Field
kdensity = material["kdensity"]
kmesh = [kdensity, kdensity, kdensity]
kpts = cell.make_kpts(kmesh, scaled_center=material["vb_scaled_center"])
mymf = scf.KRHF(cell, kpts=kpts, exxdiv="ewald")
mymf.chkfile = "data/{}".format(material["chk"])
mymf = mymf.density_fit()
mymf.with_df._cderi_to_save = "data/{}".format(material["cderi"])
ekrhf = mymf.kernel()
convergence = mymf.converged
mymf_data = dict([("ekrhf", float(ekrhf)),
                  ("convergence", bool(convergence))])
dump(mymf_data, "data/{}".format(material["ekrhf"]))
#INFO: ******************** input file end ********************


System: uname_result(system='Linux', node='g122', release='4.18.0-193.el8.x86_64', version='#1 SMP Fri Mar 27 14:35:58 UTC 2020', machine='x86_64')  Threads 32
Python 3.10.12 (main, Jul 29 2023, 11:27:27) [GCC 13.2.0]
numpy 1.25.1  scipy 1.10.1
Date: Wed Oct  4 09:18:58 2023
PySCF version 2.0.1
PySCF path  /burg/berkelbach/users/eav2136/builds/pyscf/projected-cvs/pyscf
GIT HEAD (branch projected-cvs) 0bfbc692adf3ea63b8a509210433219cd1c472a2

[ENV] PYSCF_TMPDIR /burg/berkelbach/users/eav2136/projects/core_level_spectroscopy/01_peommp2_cbe/tmp
[ENV] PYSCF_MAX_MEMORY 700000
[CONFIG] DEBUG = False
[CONFIG] MAX_MEMORY = 700000
[CONFIG] TMPDIR = /burg/berkelbach/users/eav2136/projects/core_level_spectroscopy/01_peommp2_cbe/tmp
[CONFIG] UNIT = angstrom
[CONFIG] VERBOSE = 3
[CONFIG] conf_file = None
[INPUT] verbose = 7
[INPUT] max_memory = 700000 
[INPUT] num. atoms = 2
[INPUT] num. electrons = 12
[INPUT] charge = 0
[INPUT] spin (= nelec alpha-beta = 2S) = 0
[INPUT] symmetry False subgroup None
[INPUT] Mole.unit = B
[INPUT]  1 C      0.000000000000   0.000000000000   0.000000000000 AA    0.000000000000   0.000000000000   0.000000000000 Bohr
[INPUT]  2 C      0.891699936031   0.891699936031   0.891699936031 AA    1.685068664391   1.685068664391   1.685068664391 Bohr
[INPUT] ---------------- BASIS SET ---------------- 
[INPUT] l, kappa, [nprim/nctr], expnt,             c_1 c_2 ...
[INPUT] C
[INPUT] 0    0    [8    /2   ]  8236              0.000531 -0.000113
                                1235              0.004108 -0.000878
                                280.8             0.021087 -0.00454
                                79.27             0.081853 -0.018133
                                25.59             0.234817 -0.05576
                                8.997             0.434401 -0.126895
                                3.319             0.346129 -0.170352
                                0.3643            -0.008983 0.598684
[INPUT] 0    0    [1    /1   ]  0.9059               1
[INPUT] 0    0    [1    /1   ]  0.1285               1
[INPUT] 1    0    [3    /1   ]  18.71             0.014031
                                4.133             0.086866
                                1.2               0.290216
[INPUT] 1    0    [1    /1   ]  0.3827               1
[INPUT] 1    0    [1    /1   ]  0.1209               1
[INPUT] 2    0    [1    /1   ]  1.097                1
[INPUT] 2    0    [1    /1   ]  0.318                1
[INPUT] 3    0    [1    /1   ]  0.761                1
[INPUT] 0    0    [1    /1   ]  4.292                1
[INPUT] 0    0    [1    /1   ]  11.876               1
[INPUT] 1    0    [1    /1   ]  8.778                1
[INPUT] 1    0    [1    /1   ]  33.19                1
[INPUT] 2    0    [1    /1   ]  14.839               1

Ewald components = 3.0606179073546e-132, -242.469443607053, 213.698400957796
nuclear repulsion = -28.7710426492569
number of shells = 28
number of NR pGTOs = 110
number of NR cGTOs = 86
basis = ccpcvtz
ecp = {}
bas 0, expnt(s) = [8.236e+03 1.235e+03 2.808e+02 7.927e+01 2.559e+01 8.997e+00 3.319e+00
 3.643e-01]
bas 1, expnt(s) = [0.9059]
bas 2, expnt(s) = [0.1285]
bas 3, expnt(s) = [18.71   4.133  1.2  ]
bas 4, expnt(s) = [0.3827]
bas 5, expnt(s) = [0.1209]
bas 6, expnt(s) = [1.097]
bas 7, expnt(s) = [0.318]
bas 8, expnt(s) = [0.761]
bas 9, expnt(s) = [4.292]
bas 10, expnt(s) = [11.876]
bas 11, expnt(s) = [8.778]
bas 12, expnt(s) = [33.19]
bas 13, expnt(s) = [14.839]
bas 14, expnt(s) = [8.236e+03 1.235e+03 2.808e+02 7.927e+01 2.559e+01 8.997e+00 3.319e+00
 3.643e-01]
bas 15, expnt(s) = [0.9059]
bas 16, expnt(s) = [0.1285]
bas 17, expnt(s) = [18.71   4.133  1.2  ]
bas 18, expnt(s) = [0.3827]
bas 19, expnt(s) = [0.1209]
bas 20, expnt(s) = [1.097]
bas 21, expnt(s) = [0.318]
bas 22, expnt(s) = [0.761]
bas 23, expnt(s) = [4.292]
bas 24, expnt(s) = [11.876]
bas 25, expnt(s) = [8.778]
bas 26, expnt(s) = [33.19]
bas 27, expnt(s) = [14.839]
CPU time:         0.95
lattice vectors  a1 [0.000000000, 3.370137329, 3.370137329]
                 a2 [3.370137329, 0.000000000, 3.370137329]
                 a3 [3.370137329, 3.370137329, 0.000000000]
dimension = 3
low_dim_ft_type = None
Cell volume = 76.5549
rcut = 22.27072948899357 (nimgs = [6 6 6])
lattice sum = 1313 cells
precision = 1e-08
pseudo = None
ke_cutoff = 105639.11192401215
    = [570 570 570] mesh (185193000 PWs)


******** <class 'pyscf.pbc.scf.khf.KRHF'> ********
method = KRHF-KSCF-RHF-SCF-RHF
initial guess = minao
damping factor = 0
level_shift factor = 0
DIIS = <class 'pyscf.scf.diis.CDIIS'>
diis_start_cycle = 1
diis_space = 8
SCF conv_tol = 1e-07
SCF conv_tol_grad = None
SCF max_cycles = 50
direct_scf = True
direct_scf_tol = 1e-13
chkfile to save SCF result = data/c_ccpcvtz_k3_C_1s.chk
max_memory 700000 MB (current use 88 MB)


******** PBC SCF flags ********
N kpts = 27
kpts = [[ 0.00000000e+00  0.00000000e+00  0.00000000e+00]
 [ 3.10728451e-01  3.10728451e-01 -3.10728451e-01]
 [ 6.21456902e-01  6.21456902e-01 -6.21456902e-01]
 [ 3.10728451e-01 -3.10728451e-01  3.10728451e-01]
 [ 6.21456902e-01  1.97585401e-17 -1.97585401e-17]
 [ 9.32185352e-01  3.10728451e-01 -3.10728451e-01]
 [ 6.21456902e-01 -6.21456902e-01  6.21456902e-01]
 [ 9.32185352e-01 -3.10728451e-01  3.10728451e-01]
 [ 1.24291380e+00  3.95170803e-17 -3.95170803e-17]
 [-3.10728451e-01  3.10728451e-01  3.10728451e-01]
 [ 1.97585401e-17  6.21456902e-01 -1.97585401e-17]
 [ 3.10728451e-01  9.32185352e-01 -3.10728451e-01]
 [ 1.97585401e-17 -1.97585401e-17  6.21456902e-01]
 [ 3.10728451e-01  3.10728451e-01  3.10728451e-01]
 [ 6.21456902e-01  6.21456902e-01 -3.95170803e-17]
 [ 3.10728451e-01 -3.10728451e-01  9.32185352e-01]
 [ 6.21456902e-01 -3.57526111e-17  6.21456902e-01]
 [ 9.32185352e-01  3.10728451e-01  3.10728451e-01]
 [-6.21456902e-01  6.21456902e-01  6.21456902e-01]
 [-3.10728451e-01  9.32185352e-01  3.10728451e-01]
 [ 3.95170803e-17  1.24291380e+00 -3.95170803e-17]
 [-3.10728451e-01  3.10728451e-01  9.32185352e-01]
 [ 1.97585401e-17  6.21456902e-01  6.21456902e-01]
 [ 3.10728451e-01  9.32185352e-01  3.10728451e-01]
 [ 3.95170803e-17 -3.95170803e-17  1.24291380e+00]
 [ 3.10728451e-01  3.10728451e-01  9.32185352e-01]
 [ 6.21456902e-01  6.21456902e-01  6.21456902e-01]]
Exchange divergence treatment (exxdiv) = ewald
Monkhorst pack size [3 3 3] ew_eta 2.0680636387390696 ew_cut 3.402350398388744
Ewald components = 0, -1.16695765003732, 1.05358783663642
    madelung (= occupied orbital energy shift) = 0.22673962680178716
    Total energy shift due to Ewald probe charge = -1/2 * Nelec*madelung = -1.36043776081
DF object = <pyscf.pbc.df.df.GDF object at 0x155553f2bfa0>
Set gradient conv threshold to 0.000316228
Big error detected in the electron number of initial guess density matrix (Ne/cell = 11.9993)!
  This can cause huge error in Fock matrix and lead to instability in SCF for low-dimensional systems.
  DM is normalized wrt the number of electrons 12.0
    CPU time for vnuc pass1: analytic int    531.31 sec, wall time     17.16 sec
    CPU time for contracting Vnuc [0:216]     18.51 sec, wall time      0.62 sec
    CPU time for contracting Vnuc     18.52 sec, wall time      0.62 sec
    CPU time for get_nuc    549.96 sec, wall time     17.79 sec


******** <class 'pyscf.pbc.df.df.GDF'> ********
mesh = [7, 7, 7] (343 PWs)
auxbasis = None
eta = 0.2
exp_to_discard = None
_cderi_to_save = data/c_ccpcvtz_k3_C_1s_cderi.h5
len(kpts) = 27
    kpts = [[ 0.00000000e+00  0.00000000e+00  0.00000000e+00]
 [ 3.10728451e-01  3.10728451e-01 -3.10728451e-01]
 [ 6.21456902e-01  6.21456902e-01 -6.21456902e-01]
 [ 3.10728451e-01 -3.10728451e-01  3.10728451e-01]
 [ 6.21456902e-01  1.97585401e-17 -1.97585401e-17]
 [ 9.32185352e-01  3.10728451e-01 -3.10728451e-01]
 [ 6.21456902e-01 -6.21456902e-01  6.21456902e-01]
 [ 9.32185352e-01 -3.10728451e-01  3.10728451e-01]
 [ 1.24291380e+00  3.95170803e-17 -3.95170803e-17]
 [-3.10728451e-01  3.10728451e-01  3.10728451e-01]
 [ 1.97585401e-17  6.21456902e-01 -1.97585401e-17]
 [ 3.10728451e-01  9.32185352e-01 -3.10728451e-01]
 [ 1.97585401e-17 -1.97585401e-17  6.21456902e-01]
 [ 3.10728451e-01  3.10728451e-01  3.10728451e-01]
 [ 6.21456902e-01  6.21456902e-01 -3.95170803e-17]
 [ 3.10728451e-01 -3.10728451e-01  9.32185352e-01]
 [ 6.21456902e-01 -3.57526111e-17  6.21456902e-01]
 [ 9.32185352e-01  3.10728451e-01  3.10728451e-01]
 [-6.21456902e-01  6.21456902e-01  6.21456902e-01]
 [-3.10728451e-01  9.32185352e-01  3.10728451e-01]
 [ 3.95170803e-17  1.24291380e+00 -3.95170803e-17]
 [-3.10728451e-01  3.10728451e-01  9.32185352e-01]
 [ 1.97585401e-17  6.21456902e-01  6.21456902e-01]
 [ 3.10728451e-01  9.32185352e-01  3.10728451e-01]
 [ 3.95170803e-17 -3.95170803e-17  1.24291380e+00]
 [ 3.10728451e-01  3.10728451e-01  9.32185352e-01]
 [ 6.21456902e-01  6.21456902e-01  6.21456902e-01]]
Even tempered Gaussians are generated as DF auxbasis for  C
  ETB auxbasis for C  [[0, [2105.344, 1]], [0, [1052.672, 1]], [0, [526.336, 1]], [0, [263.168, 1]], [0, [131.584, 1]], [0, [65.792, 1]], [0, [32.896, 1]], [0, [16.448, 1]], [0, [8.224, 1]], [0, [4.112, 1]], [0, [2.056, 1]], [0, [1.028, 1]], [0, [0.514, 1]], [0, [0.257, 1]], [1, [255.26699539423424, 1]], [1, [127.63349769711712, 1]], [1, [63.81674884855856, 1]], [1, [31.90837442427928, 1]], [1, [15.95418721213964, 1]], [1, [7.97709360606982, 1]], [1, [3.98854680303491, 1]], [1, [1.994273401517455, 1]], [1, [0.9971367007587275, 1]], [1, [0.49856835037936376, 1]], [1, [0.24928417518968188, 1]], [2, [247.6032, 1]], [2, [123.8016, 1]], [2, [61.9008, 1]], [2, [30.9504, 1]], [2, [15.4752, 1]], [2, [7.7376, 1]], [2, [3.8688, 1]], [2, [1.9344, 1]], [2, [0.9672, 1]], [2, [0.4836, 1]], [2, [0.2418, 1]], [3, [25.09785928719818, 1]], [3, [12.54892964359909, 1]], [3, [6.274464821799545, 1]], [3, [3.1372324108997725, 1]], [3, [1.5686162054498862, 1]], [3, [0.7843081027249431, 1]], [3, [0.39215405136247156, 1]], [4, [20.352, 1]], [4, [10.176, 1]], [4, [5.088, 1]], [4, [2.544, 1]], [4, [1.272, 1]], [4, [0.636, 1]]]
num shells = 98, num cGTOs = 410
Drop 0 primitive fitting functions
make aux basis, num shells = 98, num cGTOs = 410
auxcell.rcut 12.950571518732957
make compensating basis, num shells = 10, num cGTOs = 50
chgcell.rcut 11.482117703874595
    CPU time for 3c2e  27117.76 sec, wall time    936.87 sec
Num uniq kpts 63
uniq_kpts [[ 0.00000000e+00  0.00000000e+00  0.00000000e+00]
 [-3.10728451e-01 -3.10728451e-01  3.10728451e-01]
 [-6.21456902e-01 -6.21456902e-01  6.21456902e-01]
 [-3.10728451e-01  3.10728451e-01 -3.10728451e-01]
 [ 0.00000000e+00  6.21456902e-01 -6.21456902e-01]
 [ 3.10728451e-01  9.32185352e-01 -9.32185352e-01]
 [-6.21456902e-01 -1.97585401e-17  1.97585401e-17]
 [-9.32185352e-01 -3.10728451e-01  3.10728451e-01]
 [-6.21456902e-01  6.21456902e-01 -6.21456902e-01]
 [-3.10728451e-01  9.32185352e-01 -9.32185352e-01]
 [ 0.00000000e+00  1.24291380e+00 -1.24291380e+00]
 [-9.32185352e-01  3.10728451e-01 -3.10728451e-01]
 [-1.24291380e+00 -3.95170803e-17  3.95170803e-17]
 [ 3.10728451e-01 -3.10728451e-01 -3.10728451e-01]
 [ 6.21456902e-01  0.00000000e+00 -6.21456902e-01]
 [ 9.32185352e-01  3.10728451e-01 -9.32185352e-01]
 [ 6.21456902e-01 -6.21456902e-01  0.00000000e+00]
 [ 9.32185352e-01 -3.10728451e-01 -3.10728451e-01]
 [ 1.24291380e+00  5.55111512e-17 -6.21456902e-01]
 [ 9.32185352e-01 -9.32185352e-01  3.10728451e-01]
 [ 1.24291380e+00 -6.21456902e-01  0.00000000e+00]
 [ 1.55364225e+00 -3.10728451e-01 -3.10728451e-01]
 [-1.97585401e-17 -6.21456902e-01  1.97585401e-17]
 [ 3.10728451e-01 -9.32185352e-01  3.10728451e-01]
 [ 6.21456902e-01 -1.24291380e+00  6.21456902e-01]
 [-3.10728451e-01 -9.32185352e-01  3.10728451e-01]
 [-5.55111512e-17 -1.24291380e+00  6.21456902e-01]
 [ 3.10728451e-01 -1.55364225e+00  9.32185352e-01]
 [-1.97585401e-17  1.97585401e-17 -6.21456902e-01]
 [ 3.10728451e-01  3.10728451e-01 -9.32185352e-01]
 [ 6.21456902e-01  6.21456902e-01 -1.24291380e+00]
 [-3.10728451e-01 -3.10728451e-01 -3.10728451e-01]
 [-6.21456902e-01 -6.21456902e-01  3.95170803e-17]
 [-3.10728451e-01  3.10728451e-01 -9.32185352e-01]
 [-5.55111512e-17  6.21456902e-01 -1.24291380e+00]
 [ 3.10728451e-01  9.32185352e-01 -1.55364225e+00]
 [-6.21456902e-01  3.57526111e-17 -6.21456902e-01]
 [-9.32185352e-01 -3.10728451e-01 -3.10728451e-01]
 [ 6.21456902e-01 -6.21456902e-01 -6.21456902e-01]
 [ 9.32185352e-01 -3.10728451e-01 -9.32185352e-01]
 [ 1.24291380e+00  0.00000000e+00 -1.24291380e+00]
 [ 9.32185352e-01 -9.32185352e-01 -3.10728451e-01]
 [ 1.24291380e+00 -6.21456902e-01 -6.21456902e-01]
 [ 1.55364225e+00 -3.10728451e-01 -9.32185352e-01]
 [ 1.24291380e+00 -1.24291380e+00  0.00000000e+00]
 [ 1.55364225e+00 -9.32185352e-01 -3.10728451e-01]
 [ 1.86437070e+00 -6.21456902e-01 -6.21456902e-01]
 [ 3.10728451e-01 -9.32185352e-01 -3.10728451e-01]
 [ 6.21456902e-01 -1.24291380e+00  0.00000000e+00]
 [ 9.32185352e-01 -1.55364225e+00  3.10728451e-01]
 [-3.95170803e-17 -1.24291380e+00  3.95170803e-17]
 [ 3.10728451e-01 -1.55364225e+00  3.10728451e-01]
 [ 6.21456902e-01 -1.86437070e+00  6.21456902e-01]
 [ 3.10728451e-01 -3.10728451e-01 -9.32185352e-01]
 [ 6.21456902e-01  0.00000000e+00 -1.24291380e+00]
 [ 9.32185352e-01  3.10728451e-01 -1.55364225e+00]
 [-1.97585401e-17 -6.21456902e-01 -6.21456902e-01]
 [-3.10728451e-01 -9.32185352e-01 -3.10728451e-01]
 [-3.95170803e-17  3.95170803e-17 -1.24291380e+00]
 [ 3.10728451e-01  3.10728451e-01 -1.55364225e+00]
 [ 6.21456902e-01  6.21456902e-01 -1.86437070e+00]
 [-3.10728451e-01 -3.10728451e-01 -9.32185352e-01]
 [-6.21456902e-01 -6.21456902e-01 -6.21456902e-01]]
max_memory 699475.982336 (MB)  blocksize 38014999
Cholesky decomposition for j2c at kpt 0
Symmetry pattern (k - [0. 0. 0.])*a= 2n pi
    make_kpt for uniq_kptji_ids [0]
kpt = [0. 0. 0.]
adapted_ji_idx = [  0   2   5   9  14  20  27  35  44  54  65  77  90 104 119 135 152 170
 189 209 230 252 275 299 324 350 377]
memory = 503.140352
int3c2e [1/1], AO [0:28], ncol = 3741
Symmetry pattern (k + [0. 0. 0.])*a= 2n pi
    make_kpt for [0]
Cholesky decomposition for j2c at kpt 1
Symmetry pattern (k - [-0.31072845 -0.31072845  0.31072845])*a= 2n pi
    make_kpt for uniq_kptji_ids [1]
kpt = [-0.31072845 -0.31072845  0.31072845]
adapted_ji_idx = [  1   4  13  19  34  43  64  76 103 118 151 169 208 229 274 298 349 376]
memory = 1298.681856
int3c2e [1/1], AO [0:28], ncol = 7396
Symmetry pattern (k + [-0.31072845 -0.31072845  0.31072845])*a= 2n pi
    make_kpt for [2]
kpt = [-0.6214569 -0.6214569  0.6214569]
adapted_ji_idx = [  3  18  42  75 117 168 228 297 375]
memory = 1811.656704
int3c2e [1/1], AO [0:28], ncol = 7396
Cholesky decomposition for j2c at kpt 3
Symmetry pattern (k - [-0.31072845  0.31072845 -0.31072845])*a= 2n pi
    make_kpt for uniq_kptji_ids [3]
kpt = [-0.31072845  0.31072845 -0.31072845]
adapted_ji_idx = [  6  11  17  24  32  41  87 101 116 132 149 167 249 272 296 321 347 374]
memory = 1883.828224
int3c2e [1/1], AO [0:28], ncol = 7396
Symmetry pattern (k + [-0.31072845  0.31072845 -0.31072845])*a= 2n pi
    make_kpt for [8]
kpt = [-0.6214569  0.6214569 -0.6214569]
adapted_ji_idx = [ 21  29  38 129 146 164 318 344 371]
memory = 1948.430336
int3c2e [1/1], AO [0:28], ncol = 7396
Cholesky decomposition for j2c at kpt 4
Symmetry pattern (k - [ 0.         0.6214569 -0.6214569])*a= 2n pi
    make_kpt for uniq_kptji_ids [4 7]
kpt = [ 0.         0.6214569 -0.6214569]
adapted_ji_idx = [  7  12  25  33  88 102 133 150 250 273 322 348]
memory = 1894.330368
int3c2e [1/1], AO [0:28], ncol = 7396
kpt = [-0.93218535 -0.31072845  0.31072845]
adapted_ji_idx = [ 15  39 114 165 294 372]
memory = 1904.001024
int3c2e [1/1], AO [0:28], ncol = 7396
Symmetry pattern (k + [ 0.         0.6214569 -0.6214569])*a= 2n pi
    make_kpt for [10 11]
kpt = [ 0.         1.2429138 -1.2429138]
adapted_ji_idx = [ 23 131 320]
memory = 1927.356416
int3c2e [1/1], AO [0:28], ncol = 7396
kpt = [-0.93218535  0.31072845 -0.31072845]
adapted_ji_idx = [ 28  37 145 163 343 370]
memory = 1944.53504
int3c2e [1/1], AO [0:28], ncol = 7396
Cholesky decomposition for j2c at kpt 5
Symmetry pattern (k - [ 0.31072845  0.93218535 -0.93218535])*a= 2n pi
    make_kpt for uniq_kptji_ids [5 6]
kpt = [ 0.31072845  0.93218535 -0.93218535]
adapted_ji_idx = [  8  26  89 134 251 323]
memory = 1945.403392
int3c2e [1/1], AO [0:28], ncol = 7396
kpt = [-6.21456902e-01 -1.97585401e-17  1.97585401e-17]
adapted_ji_idx = [ 10  16  31  40 100 115 148 166 271 295 346 373]
memory = 1948.561408
int3c2e [1/1], AO [0:28], ncol = 7396
Symmetry pattern (k + [ 0.31072845  0.93218535 -0.93218535])*a= 2n pi
    make_kpt for [ 9 12]
kpt = [-0.31072845  0.93218535 -0.93218535]
adapted_ji_idx = [ 22  30 130 147 319 345]
memory = 1948.81536
int3c2e [1/1], AO [0:28], ncol = 7396
kpt = [-1.24291380e+00 -3.95170803e-17  3.95170803e-17]
adapted_ji_idx = [ 36 162 369]
memory = 1948.758016
int3c2e [1/1], AO [0:28], ncol = 7396
Cholesky decomposition for j2c at kpt 13
Symmetry pattern (k - [ 0.31072845 -0.31072845 -0.31072845])*a= 2n pi
    make_kpt for uniq_kptji_ids [13]
kpt = [ 0.31072845 -0.31072845 -0.31072845]
adapted_ji_idx = [ 45  56  68  81  95 110 126 143 161 180 200 221 243 266 290 315 341 368]
memory = 1957.019648
int3c2e [1/1], AO [0:28], ncol = 7396
Symmetry pattern (k + [ 0.31072845 -0.31072845 -0.31072845])*a= 2n pi
    make_kpt for [38]
kpt = [ 0.6214569 -0.6214569 -0.6214569]
adapted_ji_idx = [171 191 212 234 257 281 306 332 359]
memory = 2174.296064
int3c2e [1/1], AO [0:28], ncol = 7396
Cholesky decomposition for j2c at kpt 14
Symmetry pattern (k - [ 0.6214569  0.        -0.6214569])*a= 2n pi
    make_kpt for uniq_kptji_ids [14 25]
kpt = [ 0.6214569  0.        -0.6214569]
adapted_ji_idx = [ 46  57  82  96 127 144 181 201 244 267 316 342]
memory = 2120.62208
int3c2e [1/1], AO [0:28], ncol = 7396
kpt = [-0.31072845 -0.93218535  0.31072845]
adapted_ji_idx = [ 66 108 159 219 288 366]
memory = 2120.065024
int3c2e [1/1], AO [0:28], ncol = 7396
Symmetry pattern (k + [ 0.6214569  0.        -0.6214569])*a= 2n pi
    make_kpt for [40 47]
kpt = [ 1.2429138  0.        -1.2429138]
adapted_ji_idx = [173 236 308]
memory = 2121.58464
int3c2e [1/1], AO [0:28], ncol = 7396
kpt = [ 0.31072845 -0.93218535 -0.31072845]
adapted_ji_idx = [190 211 256 280 331 358]
memory = 2122.252288
int3c2e [1/1], AO [0:28], ncol = 7396
Cholesky decomposition for j2c at kpt 15
Symmetry pattern (k - [ 0.93218535  0.31072845 -0.93218535])*a= 2n pi
    make_kpt for uniq_kptji_ids [15 22]
kpt = [ 0.93218535  0.31072845 -0.93218535]
adapted_ji_idx = [ 47  83 128 182 245 317]
memory = 2122.473472
int3c2e [1/1], AO [0:28], ncol = 7396
kpt = [-1.97585401e-17 -6.21456902e-01  1.97585401e-17]
adapted_ji_idx = [ 55  67  94 109 142 160 199 220 265 289 340 367]
memory = 2121.99424
int3c2e [1/1], AO [0:28], ncol = 7396
Symmetry pattern (k + [ 0.93218535  0.31072845 -0.93218535])*a= 2n pi
    make_kpt for [39 50]
kpt = [ 0.93218535 -0.31072845 -0.93218535]
adapted_ji_idx = [172 192 235 258 307 333]
memory = 2121.650176
int3c2e [1/1], AO [0:28], ncol = 7396
kpt = [-3.95170803e-17 -1.24291380e+00  3.95170803e-17]
adapted_ji_idx = [210 279 357]
memory = 2121.449472
int3c2e [1/1], AO [0:28], ncol = 7396
Cholesky decomposition for j2c at kpt 16
Symmetry pattern (k - [ 0.6214569 -0.6214569  0.       ])*a= 2n pi
    make_kpt for uniq_kptji_ids [16 33]
kpt = [ 0.6214569 -0.6214569  0.       ]
adapted_ji_idx = [ 48  59  71  84  98 113 183 203 224 246 269 293]
memory = 2122.620928
int3c2e [1/1], AO [0:28], ncol = 7396
kpt = [-0.31072845  0.31072845 -0.93218535]
adapted_ji_idx = [120 137 155 309 335 362]
memory = 2121.928704
int3c2e [1/1], AO [0:28], ncol = 7396
Symmetry pattern (k + [ 0.6214569 -0.6214569  0.       ])*a= 2n pi
    make_kpt for [44 53]
kpt = [ 1.2429138 -1.2429138  0.       ]
adapted_ji_idx = [177 197 218]
memory = 2121.904128
int3c2e [1/1], AO [0:28], ncol = 7396
kpt = [ 0.31072845 -0.31072845 -0.93218535]
adapted_ji_idx = [231 254 278 303 329 356]
memory = 2122.366976
int3c2e [1/1], AO [0:28], ncol = 7396
Cholesky decomposition for j2c at kpt 17
Symmetry pattern (k - [ 0.93218535 -0.31072845 -0.31072845])*a= 2n pi
    make_kpt for uniq_kptji_ids [17 26 34 37]
kpt = [ 0.93218535 -0.31072845 -0.31072845]
adapted_ji_idx = [ 49  60  85  99 184 204 247 270]
memory = 2122.493952
int3c2e [1/1], AO [0:28], ncol = 7396
kpt = [-5.55111512e-17 -1.24291380e+00  6.21456902e-01]
adapted_ji_idx = [ 69 111 222 291]
memory = 2122.330112
int3c2e [1/1], AO [0:28], ncol = 7396
kpt = [-5.55111512e-17  6.21456902e-01 -1.24291380e+00]
adapted_ji_idx = [121 138 310 336]
memory = 2123.804672
int3c2e [1/1], AO [0:28], ncol = 7396
kpt = [-0.93218535 -0.31072845 -0.31072845]
adapted_ji_idx = [153 360]
memory = 2124.161024
int3c2e [1/1], AO [0:28], ncol = 7396
Symmetry pattern (k + [ 0.93218535 -0.31072845 -0.31072845])*a= 2n pi
    make_kpt for [46 49 55 56]
kpt = [ 1.8643707 -0.6214569 -0.6214569]
adapted_ji_idx = [179]
memory = 2124.324864
int3c2e [1/1], AO [0:28], ncol = 7396
kpt = [ 0.93218535 -1.55364225  0.31072845]
adapted_ji_idx = [196 217]
memory = 2124.36992
int3c2e [1/1], AO [0:28], ncol = 7396
kpt = [ 0.93218535  0.31072845 -1.55364225]
adapted_ji_idx = [233 305]
memory = 2124.435456
int3c2e [1/1], AO [0:28], ncol = 7396
kpt = [-1.97585401e-17 -6.21456902e-01 -6.21456902e-01]
adapted_ji_idx = [253 277 328 355]
memory = 2126.815232
int3c2e [1/1], AO [0:28], ncol = 7396
Cholesky decomposition for j2c at kpt 18
Symmetry pattern (k - [ 1.24291380e+00  5.55111512e-17 -6.21456902e-01])*a= 2n pi
    make_kpt for uniq_kptji_ids [18 23 35 36]
kpt = [ 1.24291380e+00  5.55111512e-17 -6.21456902e-01]
adapted_ji_idx = [ 50  86 185 248]
memory = 2127.233024
int3c2e [1/1], AO [0:28], ncol = 7396
kpt = [ 0.31072845 -0.93218535  0.31072845]
adapted_ji_idx = [ 58  70  97 112 202 223 268 292]
memory = 2125.873152
int3c2e [1/1], AO [0:28], ncol = 7396
kpt = [ 0.31072845  0.93218535 -1.55364225]
adapted_ji_idx = [122 311]
memory = 2125.602816
int3c2e [1/1], AO [0:28], ncol = 7396
kpt = [-6.21456902e-01  3.57526111e-17 -6.21456902e-01]
adapted_ji_idx = [136 154 334 361]
memory = 2126.635008
int3c2e [1/1], AO [0:28], ncol = 7396
Symmetry pattern (k + [ 1.24291380e+00  5.55111512e-17 -6.21456902e-01])*a= 2n pi
    make_kpt for [45 52 54 57]
kpt = [ 1.55364225 -0.93218535 -0.31072845]
adapted_ji_idx = [178 198]
memory = 2126.319616
int3c2e [1/1], AO [0:28], ncol = 7396
kpt = [ 0.6214569 -1.8643707  0.6214569]
adapted_ji_idx = [216]
memory = 2126.467072
int3c2e [1/1], AO [0:28], ncol = 7396
kpt = [ 0.6214569  0.        -1.2429138]
adapted_ji_idx = [232 255 304 330]
memory = 2126.180352
int3c2e [1/1], AO [0:28], ncol = 7396
kpt = [-0.31072845 -0.93218535 -0.31072845]
adapted_ji_idx = [276 354]
memory = 2126.741504
int3c2e [1/1], AO [0:28], ncol = 7396
Cholesky decomposition for j2c at kpt 19
Symmetry pattern (k - [ 0.93218535 -0.93218535  0.31072845])*a= 2n pi
    make_kpt for uniq_kptji_ids [19 28]
kpt = [ 0.93218535 -0.93218535  0.31072845]
adapted_ji_idx = [ 51  62  74 186 206 227]
memory = 2127.110144
int3c2e [1/1], AO [0:28], ncol = 7396
kpt = [-1.97585401e-17  1.97585401e-17 -6.21456902e-01]
adapted_ji_idx = [ 78  92 107 123 140 158 240 263 287 312 338 365]
memory = 2127.192064
int3c2e [1/1], AO [0:28], ncol = 7396
Symmetry pattern (k + [ 0.93218535 -0.93218535  0.31072845])*a= 2n pi
    make_kpt for [41 58]
kpt = [ 0.93218535 -0.93218535 -0.31072845]
adapted_ji_idx = [174 194 215 237 260 284]
memory = 2127.179776
int3c2e [1/1], AO [0:28], ncol = 7396
kpt = [-3.95170803e-17  3.95170803e-17 -1.24291380e+00]
adapted_ji_idx = [300 326 353]
memory = 2126.184448
int3c2e [1/1], AO [0:28], ncol = 7396
Cholesky decomposition for j2c at kpt 20
Symmetry pattern (k - [ 1.2429138 -0.6214569  0.       ])*a= 2n pi
    make_kpt for uniq_kptji_ids [20 27 29 32]
kpt = [ 1.2429138 -0.6214569  0.       ]
adapted_ji_idx = [ 52  63 187 207]
memory = 2126.761984
int3c2e [1/1], AO [0:28], ncol = 7396
kpt = [ 0.31072845 -1.55364225  0.93218535]
adapted_ji_idx = [ 72 225]
memory = 2126.016512
int3c2e [1/1], AO [0:28], ncol = 7396
kpt = [ 0.31072845  0.31072845 -0.93218535]
adapted_ji_idx = [ 79  93 124 141 241 264 313 339]
memory = 2126.389248
int3c2e [1/1], AO [0:28], ncol = 7396
kpt = [-6.21456902e-01 -6.21456902e-01  3.95170803e-17]
adapted_ji_idx = [105 156 285 363]
memory = 2125.955072
int3c2e [1/1], AO [0:28], ncol = 7396
Symmetry pattern (k + [ 1.2429138 -0.6214569  0.       ])*a= 2n pi
    make_kpt for [43 48 60 61]
kpt = [ 1.55364225 -0.31072845 -0.93218535]
adapted_ji_idx = [176 239]
memory = 2126.49984
int3c2e [1/1], AO [0:28], ncol = 7396
kpt = [ 0.6214569 -1.2429138  0.       ]
adapted_ji_idx = [193 214 259 283]
memory = 2126.389248
int3c2e [1/1], AO [0:28], ncol = 7396
kpt = [ 0.6214569  0.6214569 -1.8643707]
adapted_ji_idx = [302]
memory = 2125.918208
int3c2e [1/1], AO [0:28], ncol = 7396
kpt = [-0.31072845 -0.31072845 -0.93218535]
adapted_ji_idx = [325 352]
memory = 2126.06976
int3c2e [1/1], AO [0:28], ncol = 7396
Cholesky decomposition for j2c at kpt 21
Symmetry pattern (k - [ 1.55364225 -0.31072845 -0.31072845])*a= 2n pi
    make_kpt for uniq_kptji_ids [21 24 30 31]
kpt = [ 1.55364225 -0.31072845 -0.31072845]
adapted_ji_idx = [ 53 188]
memory = 2127.028224
int3c2e [1/1], AO [0:28], ncol = 7396
kpt = [ 0.6214569 -1.2429138  0.6214569]
adapted_ji_idx = [ 61  73 205 226]
memory = 2126.966784
int3c2e [1/1], AO [0:28], ncol = 7396
kpt = [ 0.6214569  0.6214569 -1.2429138]
adapted_ji_idx = [ 80 125 242 314]
memory = 2126.839808
int3c2e [1/1], AO [0:28], ncol = 7396
kpt = [-0.31072845 -0.31072845 -0.31072845]
adapted_ji_idx = [ 91 106 139 157 262 286 337 364]
memory = 2126.503936
int3c2e [1/1], AO [0:28], ncol = 7396
Symmetry pattern (k + [ 1.55364225 -0.31072845 -0.31072845])*a= 2n pi
    make_kpt for [42 51 59 62]
kpt = [ 1.2429138 -0.6214569 -0.6214569]
adapted_ji_idx = [175 195 238 261]
memory = 2126.209024
int3c2e [1/1], AO [0:28], ncol = 7396
kpt = [ 0.31072845 -1.55364225  0.31072845]
adapted_ji_idx = [213 282]
memory = 2126.495744
int3c2e [1/1], AO [0:28], ncol = 7396
kpt = [ 0.31072845  0.31072845 -1.55364225]
adapted_ji_idx = [301 327]
memory = 2126.163968
int3c2e [1/1], AO [0:28], ncol = 7396
kpt = [-0.6214569 -0.6214569 -0.6214569]
adapted_ji_idx = [351]
memory = 2126.47936
int3c2e [1/1], AO [0:28], ncol = 7396
    CPU time for j3c  30524.28 sec, wall time   1129.62 sec
    CPU time for Init get_k_kpts  30524.77 sec, wall time   1129.63 sec
    CPU time for get_k_kpts: make_kpt ki>=kj (0,*)      3.78 sec, wall time      0.19 sec
    CPU time for get_k_kpts: make_kpt ki>=kj (1,*)      9.14 sec, wall time      0.30 sec
    CPU time for get_k_kpts: make_kpt ki>=kj (2,*)     13.39 sec, wall time      0.43 sec
    CPU time for get_k_kpts: make_kpt ki>=kj (3,*)     19.86 sec, wall time      0.64 sec
    CPU time for get_k_kpts: make_kpt ki>=kj (4,*)     20.50 sec, wall time      0.65 sec
    CPU time for get_k_kpts: make_kpt ki>=kj (5,*)     27.26 sec, wall time      0.87 sec
    CPU time for get_k_kpts: make_kpt ki>=kj (6,*)     28.22 sec, wall time      0.90 sec
    CPU time for get_k_kpts: make_kpt ki>=kj (7,*)     31.83 sec, wall time      1.02 sec
    CPU time for get_k_kpts: make_kpt ki>=kj (8,*)     31.82 sec, wall time      1.04 sec
    CPU time for get_k_kpts: make_kpt ki>=kj (9,*)     47.77 sec, wall time      1.56 sec
    CPU time for get_k_kpts: make_kpt ki>=kj (10,*)     45.06 sec, wall time      1.45 sec
    CPU time for get_k_kpts: make_kpt ki>=kj (11,*)     50.97 sec, wall time      1.62 sec
    CPU time for get_k_kpts: make_kpt ki>=kj (12,*)     60.35 sec, wall time      1.95 sec
    CPU time for get_k_kpts: make_kpt ki>=kj (13,*)     67.76 sec, wall time      2.15 sec
    CPU time for get_k_kpts: make_kpt ki>=kj (14,*)     71.06 sec, wall time      2.28 sec
    CPU time for get_k_kpts: make_kpt ki>=kj (15,*)     67.67 sec, wall time      2.18 sec
    CPU time for get_k_kpts: make_kpt ki>=kj (16,*)     80.45 sec, wall time      2.55 sec
    CPU time for get_k_kpts: make_kpt ki>=kj (17,*)     79.94 sec, wall time      2.55 sec
    CPU time for get_k_kpts: make_kpt ki>=kj (18,*)     90.90 sec, wall time      2.90 sec
    CPU time for get_k_kpts: make_kpt ki>=kj (19,*)     78.50 sec, wall time      2.52 sec
    CPU time for get_k_kpts: make_kpt ki>=kj (20,*)     87.46 sec, wall time      2.79 sec
    CPU time for get_k_kpts: make_kpt ki>=kj (21,*)     92.60 sec, wall time      2.98 sec
    CPU time for get_k_kpts: make_kpt ki>=kj (22,*)     90.42 sec, wall time      2.88 sec
    CPU time for get_k_kpts: make_kpt ki>=kj (23,*)    109.07 sec, wall time      3.48 sec
    CPU time for get_k_kpts: make_kpt ki>=kj (24,*)    114.01 sec, wall time      3.69 sec
    CPU time for get_k_kpts: make_kpt ki>=kj (25,*)    115.20 sec, wall time      3.71 sec
    CPU time for get_k_kpts: make_kpt ki>=kj (26,*)    115.89 sec, wall time      3.70 sec
Monkhorst pack size [3 3 3] ew_eta 2.0680636387390696 ew_cut 3.402350398388744
Ewald components = 0, -1.16695765003732, 1.05358783663642
    CPU time for get_j pass 1     38.42 sec, wall time      1.43 sec
    CPU time for get_j pass 2      6.48 sec, wall time      0.97 sec
    CPU time for vj and vk  32224.20 sec, wall time   1185.13 sec
Ewald components = 3.0606179073546e-132, -242.469443607053, 213.698400957796
E1 = (-51.63110122012408-7.346232675673634e-16j)  E_coul = (3.4212548502946656-4.133653296199845e-15j)
init E= -76.9808890190864
cond(S) = [3.69179249e+07 3.98120190e+07 3.98120189e+07 3.98120190e+07
 1.10698815e+09 3.19811767e+07 3.98120189e+07 3.19811767e+07
 1.10698817e+09 3.98120188e+07 1.10698822e+09 3.19811766e+07
 1.10698822e+09 3.98120190e+07 3.19811767e+07 3.19811766e+07
 3.19811767e+07 3.19811767e+07 3.98120188e+07 3.19811766e+07
 1.10698822e+09 3.19811768e+07 3.19811767e+07 3.19811767e+07
 1.10698824e+09 3.19811767e+07 3.98120190e+07]
    CPU time for initialize scf  32784.10 sec, wall time   1203.33 sec
HOMO = 0.634691776496  LUMO = 0.792894373521
     k-point                  mo_energy
   0 ( 0.000  0.000  0.000)   [-10.62002554 -10.60446486  -1.65359343   0.63449315   0.63449315
   0.63469178] [ 0.90263342  0.90263342  0.90296707  1.1553059   1.47796806  1.78667522
  1.78667522  1.82430934  1.82430934  1.82433123  2.09239782  2.64638863
  2.64646781  2.64646781  3.39001015  3.3900229   3.3900229   3.56337616
  3.56337616  3.7684731   3.7684731   3.76848853  3.92713056  3.92717664
  3.92717664  4.59760634  4.59763327  4.59763333  4.66606229  4.9345824
  4.9345824   4.93458754  5.10099743  5.10099743  5.12347413  5.12347413
  5.12347658  5.15113305  5.32933579  5.32933579  5.4256054   5.4256054
  5.42563451  5.57321334  6.4260568   6.4260952   6.42609522  6.46389287
  6.46393187  6.46393189  7.38965982  8.41709292  8.41712156  8.41712238
 17.35125893 17.3512879  17.3512879  17.84201544 19.6512658  19.65129689
 19.65129699 19.81134353 42.2651771  42.2651771  42.31297684 42.31297684
 42.47143185 42.47145042 42.47145042 42.78527508 42.78529432 42.78529434
 82.64777286 82.64778661 82.64778661 84.37445546 84.37446918 84.37446919
 87.28267194 90.4769895 ]
   1 (-0.000 -0.000  0.333)   [-1.06124842e+01 -1.06047248e+01 -1.08178376e+00 -8.96980076e-03
  5.06828143e-01  5.06899593e-01] [ 0.97149452  1.03118923  1.0314405   1.33598995  1.56458982  1.6582191
  1.65824815  1.75926717  2.29928333  2.29928576  2.46783863  2.49452165
  2.49452843  2.69047498  3.09375034  3.09378761  3.28453887  3.42658114
  3.42658596  3.67494369  3.67496766  3.85471345  3.95131079  3.95132059
  4.07530782  4.12400694  4.33707539  4.33708439  4.44249937  4.99698611
  4.99700736  4.99867876  5.03081925  5.15107316  5.15110748  5.28636971
  5.33062311  5.54160677  5.54162559  5.74600529  5.89328851  5.89330995
  6.13240643  6.13243227  6.38929257  6.38929427  6.56729476  6.8286256
  6.82863222  7.28055935  7.30166387  7.30169764  7.58955301  9.27830874
 17.87428058 18.34157301 18.34160086 18.81957215 19.11714812 19.33122484
 19.33125159 22.81473884 42.29095033 42.29096831 42.32523784 42.37481575
 42.37482671 42.41752095 42.41752548 42.50690485 42.50690632 42.51746416
 83.19530681 83.404259   83.40427142 83.77914035 84.14172263 84.14173437
 88.92900748 95.99343171]
   2 (-0.000 -0.000  0.667)   [-1.06124842e+01 -1.06047248e+01 -1.08178376e+00 -8.96980077e-03
  5.06828143e-01  5.06899593e-01] [ 0.97149452  1.03118923  1.0314405   1.33598995  1.56458982  1.6582191
  1.65824814  1.75926717  2.29928333  2.29928576  2.46783863  2.49452164
  2.49452843  2.69047499  3.09375033  3.09378761  3.28453888  3.42658112
  3.42658595  3.67494369  3.67496766  3.85471345  3.95131078  3.95132058
  4.07530782  4.12400693  4.33707538  4.33708438  4.44249938  4.99698611
  4.99700736  4.99867876  5.03081925  5.15107315  5.15110748  5.28636971
  5.3306231   5.54160676  5.54162559  5.7460053   5.8932885   5.89330995
  6.13240642  6.13243227  6.38929257  6.38929428  6.56729476  6.8286255
  6.82863207  7.28055935  7.30166385  7.30169763  7.58955313  9.27830859
 17.87428059 18.34157299 18.34160085 18.81957215 19.11714816 19.33122483
 19.33125158 22.81473869 42.29095033 42.29096831 42.32523784 42.37481575
 42.37482671 42.41752095 42.41752548 42.50690485 42.50690632 42.51746416
 83.19530681 83.404259   83.40427142 83.77914035 84.14172263 84.14173437
 88.92900748 95.99343169]
   3 ( 0.000  0.333 -0.000)   [-1.06124842e+01 -1.06047248e+01 -1.08178376e+00 -8.96980076e-03
  5.06828143e-01  5.06899593e-01] [ 0.97149452  1.03118923  1.0314405   1.33598995  1.56458982  1.6582191
  1.65824814  1.75926717  2.29928333  2.29928576  2.46783863  2.49452164
  2.49452843  2.69047499  3.09375032  3.09378762  3.28453887  3.42658109
  3.42658601  3.67494368  3.67496766  3.85471345  3.95131077  3.9513206
  4.07530783  4.12400691  4.33707537  4.33708441  4.44249937  4.99698611
  4.99700737  4.99867876  5.03081925  5.15107312  5.15110751  5.28636969
  5.3306231   5.54160674  5.54162562  5.74600532  5.8932885   5.89330996
  6.13240638  6.13243229  6.38929257  6.38929427  6.56729476  6.82862604
  6.82863174  7.28055932  7.30166383  7.30169767  7.58955281  9.2783084
 17.87428056 18.34157295 18.3416009  18.81957216 19.11714806 19.33122483
 19.33125159 22.81473874 42.29095033 42.29096831 42.32523784 42.37481575
 42.37482671 42.41752095 42.41752548 42.50690486 42.50690631 42.51746416
 83.1953068  83.40425899 83.40427142 83.77914035 84.14172263 84.14173438
 88.92900747 95.99343167]
   4 (-0.000  0.333  0.333)   [-10.61077114 -10.60473208  -0.92173826   0.13342633   0.32771236
   0.32779945] [ 0.79289437  0.96346922  1.30693305  1.30694876  1.58416004  1.6912257
  1.99617303  2.12680597  2.12681554  2.28286998  2.31190691  2.31193318
  2.59162559  2.61159605  3.06092215  3.19520116  3.19522186  3.30791815
  3.46661202  3.46663264  3.46958334  3.88066492  3.8806799   4.03796572
  4.05115106  4.464035    4.54502855  4.5450291   4.64250935  4.73212521
  4.81988048  4.81990094  4.94255088  5.06910312  5.22676328  5.3575648
  5.35757275  5.52565379  5.54275457  5.8223264   5.82235591  5.90202894
  6.02334315  6.24096805  6.24098743  6.34528778  7.04318067  7.04320524
  7.16217064  7.2866896   7.53436906  7.53437879  7.92935956  8.4675693
 17.99187946 18.04830746 18.04832744 19.01532421 19.61885167 19.71393086
 19.71395118 20.25024329 42.26781585 42.27582776 42.33613242 42.34055431
 42.3811528  42.38116453 42.41356685 42.41357911 42.45072715 42.71078882
 83.14227441 83.17863028 83.17863936 83.91830136 84.44277438 84.4427832
 90.25327783 91.26300416]
   5 (-0.000  0.333  0.667)   [-10.60739027 -10.60540942  -0.48457602  -0.16094262   0.02426302
   0.36761977] [ 0.90367364  1.25222703  1.26236609  1.3211459   1.40967077  1.67608852
  1.76736181  2.08056297  2.30893081  2.35030232  2.57283829  2.5844954
  2.69795533  2.80791111  2.86220914  3.0361971   3.06504081  3.09234358
  3.33823339  3.52743763  3.5552268   3.72579594  3.76886156  3.99196995
  4.04661334  4.28378166  4.3320832   4.34961461  4.4461472   4.47035729
  4.78236966  5.00897034  5.06633659  5.08986079  5.15855621  5.43888052
  5.45988046  5.6231695   5.77573457  5.79336624  5.94589529  5.95330131
  6.00034153  6.14729411  6.48949322  6.49520453  6.54895834  6.8409401
  6.84431454  6.87991873  7.31130199  7.3460602   7.766544    8.66022518
 17.37711597 17.55835027 18.0498032  18.13847638 18.43338279 18.65113948
 20.24235718 21.7163799  42.29206662 42.33943234 42.34184153 42.37958636
 42.38351533 42.42968945 42.44774328 42.48978489 42.503246   42.52428243
 82.66737366 82.82635628 83.23179205 83.26206134 83.48337723 83.61796947
 91.29805235 93.73886754]
   6 ( 0.000  0.667 -0.000)   [-1.06124842e+01 -1.06047248e+01 -1.08178376e+00 -8.96980077e-03
  5.06828143e-01  5.06899593e-01] [ 0.97149452  1.03118923  1.0314405   1.33598995  1.56458982  1.6582191
  1.65824814  1.75926717  2.29928333  2.29928576  2.46783863  2.49452164
  2.49452843  2.69047498  3.09375032  3.09378762  3.28453887  3.42658109
  3.426586    3.67494367  3.67496766  3.85471345  3.95131077  3.9513206
  4.07530783  4.1240069   4.33707537  4.33708441  4.44249937  4.99698611
  4.99700737  4.99867876  5.03081925  5.15107312  5.15110751  5.28636969
  5.33062308  5.54160675  5.54162561  5.74600532  5.8932885   5.89330995
  6.13240638  6.13243229  6.38929257  6.38929427  6.56729476  6.82862601
  6.82863169  7.28055931  7.30166385  7.30169764  7.58955289  9.27830809
 17.87428057 18.34157294 18.3416009  18.81957215 19.11714809 19.33122483
 19.33125159 22.81473853 42.29095033 42.29096831 42.32523784 42.37481575
 42.37482671 42.41752095 42.41752548 42.50690486 42.50690631 42.51746416
 83.1953068  83.40425899 83.40427142 83.77914035 84.14172263 84.14173437
 88.92900747 95.99343164]
   7 ( 0.000  0.667  0.333)   [-10.60739027 -10.60540942  -0.48457602  -0.16094262   0.02426302
   0.36761977] [ 0.90367364  1.25222703  1.26236609  1.3211459   1.40967077  1.67608852
  1.76736181  2.08056297  2.30893081  2.35030232  2.57283829  2.5844954
  2.69795533  2.80791111  2.86220914  3.0361971   3.06504081  3.09234358
  3.3382334   3.52743762  3.55522681  3.72579594  3.76886159  3.99196995
  4.04661334  4.28378119  4.3320832   4.34961461  4.4461472   4.4703573
  4.78236966  5.00897034  5.06633659  5.08986078  5.15855621  5.43888053
  5.45988041  5.6231695   5.77573457  5.79336625  5.94589529  5.95330131
  6.00034102  6.14729412  6.48949305  6.49520453  6.54895834  6.84094014
  6.84431454  6.87991872  7.31130206  7.34606024  7.766544    8.66022522
 17.37711597 17.55835027 18.0498032  18.13847638 18.43338279 18.65113948
 20.24235718 21.71637992 42.29206662 42.33943234 42.34184153 42.37958636
 42.38351533 42.42968945 42.44774327 42.48978489 42.503246   42.52428243
 82.66737366 82.82635628 83.23179205 83.26206134 83.48337723 83.61796947
 91.29805235 93.73886755]
   8 (-0.000  0.667  0.667)   [-10.61077114 -10.60473208  -0.92173826   0.13342633   0.32771236
   0.32779945] [ 0.79289437  0.96346922  1.30693305  1.30694876  1.58416004  1.6912257
  1.99617303  2.12680597  2.12681554  2.28286998  2.31190691  2.31193317
  2.59162559  2.61159605  3.06092215  3.19520115  3.19522186  3.30791815
  3.46661197  3.46663261  3.46958334  3.88066463  3.8806797   4.03796572
  4.05115105  4.464035    4.54502855  4.5450291   4.64250935  4.7321252
  4.8198802   4.81990075  4.94255088  5.06910312  5.22676328  5.35756476
  5.35757272  5.52565379  5.54275457  5.82232595  5.82235561  5.90202894
  6.02334315  6.24096803  6.24098742  6.34528779  7.0431804   7.04320509
  7.16217064  7.28668961  7.53436717  7.53437514  7.92935952  8.46756862
 17.99187945 18.04830737 18.04832739 19.01532419 19.61885159 19.71393017
 19.71395076 20.25024329 42.26781585 42.27582776 42.33613242 42.34055431
 42.38115279 42.38116453 42.41356685 42.41357911 42.45072715 42.71078882
 83.14227441 83.17863027 83.17863936 83.91830136 84.44277428 84.44278317
 90.25327783 91.26300416]
   9 ( 0.333  0.000  0.000)   [-1.06124842e+01 -1.06047248e+01 -1.08178376e+00 -8.96980076e-03
  5.06828143e-01  5.06899593e-01] [ 0.97149452  1.03118923  1.0314405   1.33598995  1.56458982  1.6582191
  1.65824815  1.75926717  2.29928333  2.29928576  2.46783864  2.49452165
  2.49452843  2.69047508  3.09375035  3.09378762  3.28453888  3.4265812
  3.426586    3.67494369  3.67496766  3.85471345  3.95131081  3.9513206
  4.07530782  4.12400693  4.33707543  4.33708441  4.44249937  4.99698611
  4.99700737  4.99867876  5.03081925  5.15107319  5.15110751  5.2863697
  5.33062315  5.54160683  5.54162563  5.74600534  5.89328854  5.89330996
  6.13240644  6.13243229  6.38929258  6.38929428  6.56729477  6.82862593
  6.82863257  7.28055939  7.30166397  7.30169768  7.58955274  9.2783078
 17.87428056 18.34157303 18.34160089 18.81957216 19.11714808 19.33122486
 19.3312516  22.81473845 42.29095033 42.29096831 42.32523784 42.37481575
 42.37482671 42.41752095 42.41752548 42.50690486 42.50690632 42.51746416
 83.1953068  83.404259   83.40427142 83.77914035 84.14172263 84.14173438
 88.92900747 95.99343156]
  10 ( 0.333 -0.000  0.333)   [-10.61077114 -10.60473208  -0.92173826   0.13342633   0.32771236
   0.32779945] [ 0.79289437  0.96346922  1.30693305  1.30694876  1.58416004  1.6912257
  1.99617303  2.12680597  2.12681554  2.28286998  2.31190691  2.31193317
  2.59162559  2.61159605  3.06092215  3.19520116  3.19522186  3.30791814
  3.466612    3.46663263  3.46958334  3.8806648   3.88067984  4.03796572
  4.05115105  4.464035    4.54502855  4.5450291   4.64250935  4.7321252
  4.81988035  4.81990089  4.94255088  5.06910312  5.22676328  5.35756478
  5.35757274  5.52565379  5.54275457  5.8223262   5.82235585  5.90202894
  6.02334315  6.24096804  6.24098743  6.3452878   7.04318053  7.0432052
  7.16217063  7.28668961  7.53436646  7.5343793   7.92935959  8.46756801
 17.99187945 18.0483074  18.04832747 19.01532411 19.61885153 19.71393043
 19.71395139 20.25024328 42.26781585 42.27582776 42.33613242 42.34055431
 42.38115279 42.38116454 42.41356685 42.41357911 42.45072715 42.71078881
 83.14227441 83.17863027 83.17863939 83.91830134 84.44277426 84.44278341
 90.25327782 91.26300416]
  11 ( 0.333 -0.000  0.667)   [-10.60739027 -10.60540942  -0.48457602  -0.16094262   0.02426302
   0.36761977] [ 0.90367364  1.25222703  1.26236609  1.3211459   1.40967077  1.67608852
  1.76736181  2.08056297  2.30893081  2.35030233  2.57283829  2.5844954
  2.69795533  2.80791111  2.86220914  3.03619713  3.06504081  3.0923436
  3.33823338  3.52743782  3.55522682  3.72579594  3.76886187  3.99196995
  4.04661334  4.28378683  4.3320832   4.3496146   4.4461472   4.47035737
  4.78236967  5.00897034  5.06633659  5.08986096  5.15855621  5.43888071
  5.45988098  5.6231695   5.77573457  5.79336626  5.94589529  5.95330131
  6.00034699  6.14729417  6.48949506  6.49520452  6.54895834  6.84094007
  6.84431454  6.87991886  7.31130289  7.3460602   7.76654399  8.66022559
 17.37711597 17.55835027 18.04980321 18.13847638 18.43338279 18.65113948
 20.24235717 21.71638015 42.29206662 42.33943234 42.34184153 42.37958636
 42.38351533 42.42968946 42.44774332 42.48978489 42.503246   42.52428243
 82.66737366 82.82635628 83.23179205 83.26206134 83.48337723 83.61796947
 91.29805235 93.73886762]
  12 ( 0.333  0.333 -0.000)   [-10.61077114 -10.60473208  -0.92173826   0.13342633   0.32771236
   0.32779945] [ 0.79289437  0.96346922  1.30693305  1.30694876  1.58416004  1.6912257
  1.99617303  2.12680596  2.12681553  2.28286998  2.31190691  2.31193317
  2.59162559  2.61159605  3.06092215  3.19520114  3.19522184  3.30791814
  3.46661185  3.46663251  3.46958334  3.88066385  3.88067909  4.03796572
  4.05115104  4.464035    4.54502855  4.5450291   4.64250935  4.7321252
  4.81987946  4.81990016  4.94255088  5.06910312  5.22676328  5.35756463
  5.35757262  5.52565379  5.54275457  5.82232484  5.82235474  5.90202894
  6.02334315  6.240968    6.24098739  6.34528779  7.0431795   7.04320437
  7.16217063  7.28668963  7.53435456  7.53436968  7.92935959  8.46756774
 17.99187945 18.04830706 18.04832716 19.01532409 19.61885151 19.71392823
 19.71394939 20.25024328 42.26781585 42.27582776 42.33613242 42.34055431
 42.38115278 42.38116452 42.41356685 42.41357911 42.45072715 42.71078881
 83.14227441 83.17863024 83.17863935 83.91830134 84.4427741  84.44278311
 90.25327782 91.26300416]
  13 ( 0.333  0.333  0.333)   [-1.06124237e+01 -1.06047705e+01 -1.07745049e+00 -8.57939234e-03
  5.06855873e-01  5.06855873e-01] [ 0.97155372  1.03126463  1.03126463  1.335889    1.56458794  1.65820127
  1.65820127  1.75931547  2.29928469  2.29928469  2.46788965  2.49454224
  2.49454224  2.69049688  3.09379358  3.09379359  3.28453804  3.42660739
  3.42660742  3.67495702  3.67495703  3.85473006  3.95131766  3.95131767
  4.07526534  4.12397986  4.33707261  4.33707262  4.4424904   4.99698307
  4.99698307  4.99869609  5.03084187  5.15110509  5.15110512  5.28636638
  5.33058779  5.54163347  5.54163349  5.74599881  5.8932946   5.89329461
  6.13242784  6.13242788  6.3892869   6.3892869   6.56727912  6.82861718
  6.82861749  7.28052164  7.30170374  7.30170378  7.58955748  9.27829665
 17.87426386 18.34159974 18.34159979 18.81954041 19.11715152 19.33125094
 19.33125095 22.81472678 42.29096122 42.29096122 42.32522229 42.37482402
 42.37482402 42.41753029 42.41753029 42.50690982 42.50690983 42.51744789
 83.19529439 83.40427125 83.40427125 83.77912872 84.14173433 84.14173433
 88.92900713 95.99343103]
  14 ( 0.333  0.333  0.667)   [-10.60737603 -10.60544391  -0.48381552  -0.16030981   0.02431975
   0.3675776 ] [ 0.90369315  1.25220491  1.26248892  1.32104908  1.40966528  1.67603124
  1.76733551  2.08057294  2.30896625  2.35031302  2.57283228  2.58447449
  2.69795461  2.80791466  2.8622288   3.03619513  3.06503842  3.09234567
  3.33824912  3.52746335  3.55524424  3.72579494  3.76886256  3.99198915
  4.04663016  4.28378171  4.332076    4.34961048  4.44614099  4.4703285
  4.78233842  5.00895027  5.06633969  5.08987182  5.15857294  5.43888252
  5.4598814   5.62318589  5.77574055  5.79336316  5.94587087  5.95329283
  6.00034573  6.14728655  6.48949163  6.49519043  6.54894585  6.84093181
  6.84433834  6.87994147  7.31130577  7.34604993  7.76653004  8.6602369
 17.37713504 17.55833545 18.04979758 18.13849754 18.43336262 18.65113612
 20.24236086 21.71638321 42.2920761  42.33942976 42.34184322 42.37959109
 42.38350653 42.42968207 42.44775044 42.48979545 42.50324432 42.52427022
 82.66738274 82.82635094 83.23179218 83.2620701  83.48336844 83.61796603
 91.29805279 93.73886684]
  15 ( 0.333  0.667 -0.000)   [-10.60739027 -10.60540942  -0.48457602  -0.16094262   0.02426302
   0.36761977] [ 0.90367364  1.25222703  1.26236609  1.3211459   1.40967077  1.67608852
  1.76736181  2.08056297  2.30893082  2.35030233  2.57283829  2.5844954
  2.69795533  2.80791111  2.86220914  3.03619715  3.06504081  3.09234359
  3.33823337  3.52743769  3.55522684  3.72579594  3.76886195  3.99196995
  4.04661334  4.2837832   4.33208321  4.3496146   4.4461472   4.47035739
  4.78236967  5.00897034  5.06633659  5.08986084  5.15855621  5.43888075
  5.45988062  5.6231695   5.77573457  5.79336627  5.94589529  5.95330131
  6.00034315  6.14729423  6.48949376  6.49520453  6.54895834  6.84094004
  6.84431454  6.87991876  7.31130296  7.34606031  7.76654399  8.6602257
 17.37711597 17.55835027 18.04980321 18.13847638 18.43338279 18.65113948
 20.24235717 21.7163802  42.29206662 42.33943234 42.34184153 42.37958636
 42.38351533 42.42968946 42.44774329 42.48978489 42.503246   42.52428243
 82.66737366 82.82635628 83.23179205 83.26206134 83.48337723 83.61796947
 91.29805235 93.73886764]
  16 ( 0.333  0.667  0.333)   [-10.60737603 -10.60544391  -0.48381552  -0.16030981   0.02431975
   0.3675776 ] [ 0.90369315  1.25220491  1.26248892  1.32104908  1.40966528  1.67603124
  1.76733551  2.08057294  2.30896624  2.35031302  2.57283228  2.58447448
  2.69795461  2.80791466  2.8622288   3.03619504  3.06503842  3.09234567
  3.33824901  3.52746339  3.55524414  3.72579494  3.76886211  3.99198915
  4.04663015  4.28378288  4.33207596  4.34961045  4.44614099  4.47032837
  4.7823384   5.00895026  5.06633967  5.08987185  5.15857294  5.43888224
  5.45988152  5.62318589  5.77574054  5.79336312  5.94587087  5.95329282
  6.00034696  6.1472863   6.48949205  6.49519041  6.54894584  6.84093145
  6.84433834  6.8799415   7.31130516  7.34604956  7.76653     8.66023621
 17.37713504 17.55833545 18.04979759 18.13849754 18.43336261 18.6511361
 20.24236079 21.71638284 42.2920761  42.33942975 42.34184322 42.37959109
 42.38350653 42.42968207 42.44775045 42.48979545 42.50324431 42.52427022
 82.66738274 82.82635094 83.23179218 83.2620701  83.48336844 83.61796603
 91.29805277 93.73886672]
  17 ( 0.333  0.667  0.667)   [-10.60737603 -10.60544391  -0.48381552  -0.16030981   0.02431975
   0.3675776 ] [ 0.90369315  1.25220491  1.26248892  1.32104908  1.40966528  1.67603124
  1.76733551  2.08057294  2.30896625  2.35031302  2.57283228  2.58447449
  2.69795461  2.80791466  2.8622288   3.03619513  3.06503842  3.09234567
  3.33824908  3.5274634   3.55524427  3.72579494  3.76886272  3.99198915
  4.04663015  4.28378337  4.33207601  4.34961045  4.44614099  4.47032853
  4.78233842  5.00895026  5.06633968  5.08987187  5.15857294  5.43888262
  5.45988156  5.62318589  5.77574055  5.79336317  5.94587087  5.95329282
  6.00034749  6.14728662  6.48949224  6.49519042  6.54894584  6.84093166
  6.84433834  6.87994151  7.31130595  7.34604993  7.76653     8.66023749
 17.37713504 17.55833545 18.04979759 18.13849754 18.43336261 18.65113612
 20.2423608  21.71638362 42.2920761  42.33942976 42.34184322 42.37959109
 42.38350653 42.42968207 42.44775045 42.48979545 42.50324432 42.52427022
 82.66738274 82.82635094 83.23179218 83.2620701  83.48336844 83.61796603
 91.29805278 93.73886689]
  18 ( 0.667  0.000  0.000)   [-1.06124842e+01 -1.06047248e+01 -1.08178376e+00 -8.96980077e-03
  5.06828143e-01  5.06899593e-01] [ 0.97149452  1.03118923  1.0314405   1.33598995  1.56458982  1.6582191
  1.65824815  1.75926717  2.29928333  2.29928576  2.46783865  2.49452165
  2.49452843  2.69047512  3.09375035  3.09378763  3.28453889  3.42658117
  3.42658601  3.67494369  3.67496767  3.85471345  3.95131081  3.95132061
  4.07530783  4.12400695  4.33707541  4.33708442  4.44249937  4.99698611
  4.99700737  4.99867876  5.03081925  5.15107317  5.15110752  5.28636971
  5.33062316  5.54160682  5.54162563  5.74600537  5.89328853  5.89330997
  6.13240643  6.1324323   6.38929257  6.38929428  6.56729477  6.82862602
  6.82863242  7.28055941  7.30166395  7.30169769  7.58955306  9.27830824
 17.87428058 18.34157302 18.3416009  18.81957216 19.11714816 19.33122486
 19.3312516  22.81473854 42.29095033 42.29096831 42.32523784 42.37481575
 42.37482671 42.41752095 42.41752548 42.50690486 42.50690632 42.51746416
 83.19530681 83.404259   83.40427142 83.77914036 84.14172263 84.14173438
 88.92900748 95.99343162]
  19 ( 0.667  0.000  0.333)   [-10.60739027 -10.60540942  -0.48457602  -0.16094262   0.02426302
   0.36761977] [ 0.90367364  1.25222703  1.26236609  1.3211459   1.40967077  1.67608852
  1.76736181  2.08056297  2.30893082  2.35030233  2.57283829  2.5844954
  2.69795533  2.80791111  2.86220914  3.03619714  3.06504081  3.09234359
  3.33823341  3.52743779  3.55522683  3.72579594  3.76886199  3.99196995
  4.04661334  4.28378616  4.33208321  4.34961461  4.4461472   4.4703574
  4.78236968  5.00897034  5.0663366   5.08986094  5.15855621  5.43888078
  5.45988091  5.6231695   5.77573457  5.79336627  5.94589529  5.95330131
  6.00034629  6.14729421  6.48949483  6.49520452  6.54895834  6.84094016
  6.84431454  6.87991884  7.3113032   7.34606023  7.76654401  8.66022575
 17.37711597 17.55835027 18.04980321 18.13847638 18.43338279 18.65113948
 20.24235719 21.71638024 42.29206662 42.33943234 42.34184153 42.37958636
 42.38351533 42.42968946 42.44774332 42.48978489 42.503246   42.52428243
 82.66737366 82.82635628 83.23179205 83.26206134 83.48337723 83.61796947
 91.29805236 93.73886765]
  20 ( 0.667 -0.000  0.667)   [-10.61077114 -10.60473208  -0.92173826   0.13342633   0.32771236
   0.32779945] [ 0.79289437  0.96346922  1.30693305  1.30694876  1.58416004  1.6912257
  1.99617303  2.12680597  2.12681554  2.28286998  2.31190691  2.31193317
  2.59162559  2.61159605  3.06092215  3.19520115  3.19522185  3.30791814
  3.46661192  3.46663258  3.46958334  3.88066431  3.88067957  4.03796572
  4.05115105  4.464035    4.54502855  4.5450291   4.64250935  4.7321252
  4.81987989  4.81990064  4.94255088  5.06910312  5.22676328  5.35756471
  5.35757271  5.52565379  5.54275457  5.82232547  5.82235544  5.90202894
  6.02334315  6.24096801  6.24098742  6.3452878   7.04318005  7.04320497
  7.16217064  7.28668957  7.53436288  7.53437391  7.92935953  8.46756815
 17.99187945 18.04830724 18.04832738 19.01532415 19.61885154 19.71392928
 19.71395072 20.25024329 42.26781585 42.27582776 42.33613242 42.34055431
 42.38115279 42.38116453 42.41356685 42.41357911 42.45072715 42.71078881
 83.14227441 83.17863025 83.17863938 83.91830135 84.44277413 84.44278332
 90.25327782 91.26300416]
  21 ( 0.667  0.333  0.000)   [-10.60739027 -10.60540942  -0.48457602  -0.16094262   0.02426302
   0.36761977] [ 0.90367364  1.25222703  1.26236609  1.3211459   1.40967077  1.67608852
  1.76736181  2.08056297  2.30893082  2.35030233  2.57283829  2.5844954
  2.69795533  2.80791111  2.86220914  3.03619715  3.06504081  3.09234359
  3.33823336  3.52743772  3.55522685  3.72579594  3.76886197  3.99196995
  4.04661334  4.28378396  4.33208321  4.34961459  4.4461472   4.4703574
  4.78236968  5.00897034  5.06633659  5.08986087  5.15855621  5.43888077
  5.45988069  5.6231695   5.77573457  5.79336628  5.94589529  5.95330131
  6.00034396  6.14729425  6.48949403  6.49520454  6.54895834  6.84094002
  6.84431454  6.87991878  7.31130293  7.34606037  7.76654399  8.66022574
 17.37711597 17.55835027 18.04980321 18.13847638 18.43338279 18.65113948
 20.24235716 21.71638022 42.29206662 42.33943234 42.34184153 42.37958636
 42.38351533 42.42968946 42.4477433  42.48978489 42.503246   42.52428243
 82.66737366 82.82635628 83.23179205 83.26206134 83.48337723 83.61796947
 91.29805235 93.73886764]
  22 ( 0.667  0.333  0.333)   [-10.60737603 -10.60544391  -0.48381552  -0.16030981   0.02431975
   0.3675776 ] [ 0.90369315  1.25220491  1.26248892  1.32104908  1.40966528  1.67603124
  1.76733551  2.08057294  2.30896625  2.35031302  2.57283228  2.58447449
  2.69795461  2.80791466  2.8622288   3.03619512  3.06503842  3.09234567
  3.33824909  3.52746341  3.55524424  3.72579494  3.76886257  3.99198915
  4.04663016  4.28378361  4.332076    4.34961047  4.44614099  4.4703285
  4.78233842  5.00895027  5.06633969  5.08987188  5.15857294  5.43888252
  5.45988159  5.62318589  5.77574054  5.79336316  5.94587087  5.95329282
  6.00034774  6.14728653  6.48949231  6.49519043  6.54894585  6.84093173
  6.84433834  6.87994152  7.3113059   7.34604994  7.76653004  8.66023693
 17.37713504 17.55833545 18.04979759 18.13849755 18.43336262 18.65113611
 20.24236085 21.71638323 42.2920761  42.33942976 42.34184322 42.37959109
 42.38350653 42.42968207 42.44775046 42.48979545 42.50324432 42.52427022
 82.66738274 82.82635094 83.23179218 83.2620701  83.48336844 83.61796603
 91.29805279 93.73886685]
  23 ( 0.667  0.333  0.667)   [-10.60737603 -10.60544391  -0.48381552  -0.16030981   0.02431975
   0.3675776 ] [ 0.90369315  1.25220491  1.26248892  1.32104908  1.40966528  1.67603124
  1.76733551  2.08057294  2.30896624  2.35031302  2.57283228  2.58447448
  2.69795461  2.80791466  2.8622288   3.03619503  3.06503842  3.09234567
  3.33824901  3.52746339  3.55524415  3.72579494  3.76886213  3.99198915
  4.04663015  4.28378306  4.33207597  4.34961043  4.44614099  4.47032837
  4.7823384   5.00895026  5.06633966  5.08987186  5.15857294  5.43888226
  5.45988153  5.62318589  5.77574054  5.79336311  5.94587087  5.95329282
  6.00034716  6.14728633  6.48949213  6.49519039  6.54894584  6.84093145
  6.84433834  6.87994151  7.311305    7.34604947  7.76652997  8.6602366
 17.37713504 17.55833545 18.04979759 18.13849754 18.4333626  18.65113611
 20.24236075 21.71638314 42.2920761  42.33942975 42.34184322 42.37959109
 42.38350653 42.42968207 42.44775045 42.48979545 42.50324431 42.52427022
 82.66738274 82.82635094 83.23179218 83.2620701  83.48336844 83.61796603
 91.29805277 93.73886674]
  24 ( 0.667  0.667 -0.000)   [-10.61077114 -10.60473208  -0.92173826   0.13342633   0.32771236
   0.32779945] [ 0.79289437  0.96346922  1.30693305  1.30694876  1.58416004  1.6912257
  1.99617303  2.12680597  2.12681553  2.28286998  2.31190691  2.31193317
  2.59162559  2.61159605  3.06092215  3.19520114  3.19522185  3.30791814
  3.46661188  3.46663257  3.46958334  3.88066404  3.88067946  4.03796572
  4.05115105  4.464035    4.54502855  4.5450291   4.64250935  4.7321252
  4.81987965  4.81990053  4.94255088  5.06910312  5.22676328  5.35756467
  5.35757269  5.52565379  5.54275457  5.82232511  5.82235528  5.90202894
  6.02334315  6.240968    6.24098741  6.3452878   7.04317976  7.04320484
  7.16217064  7.28668963  7.53435889  7.53437345  7.92935954  8.46756799
 17.99187945 18.04830716 18.04832733 19.01532414 19.61885153 19.71392885
 19.71395044 20.25024329 42.26781585 42.27582776 42.33613242 42.34055431
 42.38115279 42.38116453 42.41356685 42.41357911 42.45072715 42.71078881
 83.14227441 83.17863026 83.17863937 83.91830135 84.4427742  84.44278328
 90.25327782 91.26300416]
  25 ( 0.667  0.667  0.333)   [-10.60737603 -10.60544391  -0.48381552  -0.16030981   0.02431975
   0.3675776 ] [ 0.90369315  1.25220491  1.26248892  1.32104908  1.40966528  1.67603124
  1.76733551  2.08057294  2.30896625  2.35031302  2.57283228  2.58447449
  2.69795461  2.80791466  2.8622288   3.03619513  3.06503842  3.09234567
  3.33824912  3.52746334  3.55524426  3.72579494  3.76886271  3.99198915
  4.04663016  4.28378153  4.33207601  4.34961046  4.44614099  4.47032853
  4.78233842  5.00895026  5.06633969  5.08987181  5.15857294  5.43888261
  5.45988138  5.62318589  5.77574055  5.79336317  5.94587087  5.95329282
  6.00034554  6.14728662  6.48949159  6.49519042  6.54894584  6.8409318
  6.84433834  6.87994147  7.31130593  7.34604989  7.76653001  8.66023746
 17.37713504 17.55833545 18.04979759 18.13849754 18.43336261 18.65113612
 20.24236082 21.71638361 42.2920761  42.33942976 42.34184322 42.37959109
 42.38350653 42.42968207 42.44775044 42.48979545 42.50324432 42.52427022
 82.66738274 82.82635094 83.23179218 83.2620701  83.48336844 83.61796603
 91.29805279 93.7388669 ]
  26 ( 0.667  0.667  0.667)   [-1.06124237e+01 -1.06047705e+01 -1.07745049e+00 -8.57939237e-03
  5.06855873e-01  5.06855873e-01] [ 0.97155372  1.03126463  1.03126463  1.335889    1.56458794  1.65820127
  1.65820127  1.75931548  2.29928469  2.29928469  2.46788965  2.49454224
  2.49454224  2.69049691  3.09379359  3.0937936   3.28453805  3.4266074
  3.42660745  3.67495702  3.67495704  3.85473006  3.95131766  3.95131768
  4.07526534  4.12397984  4.33707262  4.33707264  4.4424904   4.99698307
  4.99698308  4.99869609  5.03084187  5.15110509  5.15110514  5.28636638
  5.33058776  5.54163348  5.54163351  5.74599884  5.8932946   5.89329462
  6.13242784  6.13242789  6.3892869   6.38928691  6.56727912  6.82861726
  6.82861776  7.28052164  7.30170376  7.3017038   7.58955779  9.27829581
 17.87426388 18.34159975 18.34159981 18.81954041 19.11715161 19.33125095
 19.33125095 22.81472617 42.29096122 42.29096122 42.32522229 42.37482402
 42.37482402 42.41753029 42.41753029 42.50690982 42.50690983 42.51744789
 83.1952944  83.40427125 83.40427126 83.77912872 84.14173433 84.14173433
 88.92900713 95.99343094]
    CPU time for get_k_kpts: make_kpt ki>=kj (0,*)      3.20 sec, wall time      0.10 sec
    CPU time for get_k_kpts: make_kpt ki>=kj (1,*)      7.70 sec, wall time      0.24 sec
    CPU time for get_k_kpts: make_kpt ki>=kj (2,*)     13.09 sec, wall time      0.41 sec
    CPU time for get_k_kpts: make_kpt ki>=kj (3,*)     20.92 sec, wall time      0.68 sec
    CPU time for get_k_kpts: make_kpt ki>=kj (4,*)     22.18 sec, wall time      0.71 sec
    CPU time for get_k_kpts: make_kpt ki>=kj (5,*)     29.79 sec, wall time      0.95 sec
    CPU time for get_k_kpts: make_kpt ki>=kj (6,*)     30.35 sec, wall time      0.98 sec
    CPU time for get_k_kpts: make_kpt ki>=kj (7,*)     33.50 sec, wall time      1.07 sec
    CPU time for get_k_kpts: make_kpt ki>=kj (8,*)     35.17 sec, wall time      1.13 sec
    CPU time for get_k_kpts: make_kpt ki>=kj (9,*)     47.41 sec, wall time      1.51 sec
    CPU time for get_k_kpts: make_kpt ki>=kj (10,*)     49.65 sec, wall time      1.61 sec
    CPU time for get_k_kpts: make_kpt ki>=kj (11,*)     52.94 sec, wall time      1.71 sec
    CPU time for get_k_kpts: make_kpt ki>=kj (12,*)     62.93 sec, wall time      2.01 sec
    CPU time for get_k_kpts: make_kpt ki>=kj (13,*)     62.47 sec, wall time      2.00 sec
    CPU time for get_k_kpts: make_kpt ki>=kj (14,*)     70.04 sec, wall time      2.23 sec
    CPU time for get_k_kpts: make_kpt ki>=kj (15,*)     75.03 sec, wall time      2.44 sec
    CPU time for get_k_kpts: make_kpt ki>=kj (16,*)     74.13 sec, wall time      2.38 sec
    CPU time for get_k_kpts: make_kpt ki>=kj (17,*)     86.56 sec, wall time      2.77 sec
    CPU time for get_k_kpts: make_kpt ki>=kj (18,*)     94.53 sec, wall time      3.02 sec
    CPU time for get_k_kpts: make_kpt ki>=kj (19,*)     82.48 sec, wall time      2.63 sec
    CPU time for get_k_kpts: make_kpt ki>=kj (20,*)     93.01 sec, wall time      2.99 sec
    CPU time for get_k_kpts: make_kpt ki>=kj (21,*)     98.59 sec, wall time      3.17 sec
    CPU time for get_k_kpts: make_kpt ki>=kj (22,*)    105.48 sec, wall time      3.37 sec
    CPU time for get_k_kpts: make_kpt ki>=kj (23,*)    100.84 sec, wall time      3.28 sec
    CPU time for get_k_kpts: make_kpt ki>=kj (24,*)    119.51 sec, wall time      3.84 sec
    CPU time for get_k_kpts: make_kpt ki>=kj (25,*)    119.71 sec, wall time      3.83 sec
    CPU time for get_k_kpts: make_kpt ki>=kj (26,*)    123.14 sec, wall time      3.96 sec
Monkhorst pack size [3 3 3] ew_eta 2.0680636387390696 ew_cut 3.402350398388744
Ewald components = 0, -1.16695765003732, 1.05358783663642
    CPU time for get_j pass 1     36.11 sec, wall time      1.29 sec
    CPU time for get_j pass 2      6.75 sec, wall time      0.76 sec
    CPU time for vj and vk   1762.49 sec, wall time     57.23 sec
Ewald components = 3.0606179073546e-132, -242.469443607053, 213.698400957796
E1 = (-51.18271347015633+1.0778757758457163e-13j)  E_coul = (4.203904196973289+1.8338204586099516e-13j)
cycle= 1 E= -75.74985192244  delta_E= 1.23  |g|= 1.23  |ddm|= 1.49e+03
    CPU time for cycle= 1   1768.17 sec, wall time     57.41 sec
diis-norm(errvec)=5.00913
diis-c [-25.0913972+0.j   1.       +0.j]
HOMO = 0.380355370385  LUMO = 0.865948441557
     k-point                  mo_energy
   0 ( 0.000  0.000  0.000)   [-10.59003595 -10.58767782  -0.68556019   0.38032681   0.38032681
   0.38035537] [ 0.94743433  0.94743433  0.94745339  1.29409304  1.49092683  1.77089663
  1.77089663  1.82092812  1.82092812  1.8209387   2.08396158  2.65782733
  2.65782733  2.65782896  3.39968826  3.39969807  3.39969807  3.57431081
  3.57431081  3.77999869  3.77999869  3.78001265  3.93598671  3.93599042
  3.93599042  4.60176499  4.60176805  4.60176811  4.68529347  4.94530058
  4.94530058  4.94530992  5.11031761  5.11031761  5.12960526  5.12960714
  5.12960714  5.17285708  5.34248471  5.34248471  5.43615003  5.43615003
  5.43615687  5.57755117  6.44213379  6.44214855  6.44214857  6.46997326
  6.46998026  6.46998027  7.41242534  8.43134208  8.43134859  8.43134944
 17.36501341 17.36502499 17.36502499 17.85883746 19.66376017 19.66377124
 19.66377135 19.82663463 42.27157088 42.27157088 42.31944592 42.31944592
 42.47786545 42.47787193 42.47787193 42.79198291 42.79198967 42.79198968
 82.63599202 82.63599777 82.63599778 84.3626305  84.36263624 84.36263625
 87.26584832 90.45984564]
   1 (-0.000 -0.000  0.333)   [-10.58971981 -10.58815305  -0.53949416  -0.07071758   0.27368092
   0.27369721] [ 1.06232248  1.0680389   1.06806361  1.38164962  1.58250459  1.65084517
  1.65084866  1.77897228  2.30221157  2.30221221  2.46963237  2.49135373
  2.49135676  2.67818731  3.1018184   3.10182255  3.29246397  3.43442604
  3.4344268   3.68140247  3.68140367  3.86687789  3.95997138  3.95997415
  4.0852185   4.13941697  4.34426128  4.3442618   4.45457796  5.00709877
  5.01537849  5.01538931  5.04311419  5.1606927   5.16070133  5.29954982
  5.34325877  5.55323868  5.55324238  5.75240017  5.90423658  5.90424563
  6.14215268  6.14215901  6.40051342  6.40051437  6.58674729  6.83993729
  6.83994094  7.29494064  7.31459493  7.31460536  7.6069277   9.28617253
 17.88742134 18.35461939 18.35462952 18.83153645 19.13255089 19.34246682
 19.34247463 22.82730998 42.29742109 42.29742731 42.3318642  42.3813995
 42.38140331 42.42401037 42.42401197 42.5133612  42.51336173 42.52407397
 83.18332766 83.3924255  83.39243063 83.76719945 84.12972164 84.12972643
 88.91211103 95.97514042]
   2 (-0.000 -0.000  0.667)   [-10.58971981 -10.58815305  -0.53949416  -0.07071758   0.27368092
   0.27369721] [ 1.06232248  1.0680389   1.06806361  1.38164962  1.5825046   1.65084517
  1.65084866  1.77897228  2.30221157  2.30221221  2.46963237  2.49135373
  2.49135675  2.67818731  3.10181839  3.10182255  3.29246397  3.43442603
  3.43442678  3.68140247  3.68140366  3.86687789  3.95997137  3.95997415
  4.08521851  4.13941698  4.34426128  4.34426179  4.45457796  5.00709877
  5.01537849  5.0153893   5.04311419  5.16069269  5.16070133  5.29954983
  5.34325877  5.55323866  5.55324238  5.75240018  5.90423657  5.90424563
  6.14215267  6.14215901  6.40051342  6.40051436  6.58674729  6.83993721
  6.83994078  7.29494064  7.3145949   7.31460536  7.60692798  9.28617288
 17.88742136 18.35461937 18.35462951 18.83153645 19.13255096 19.34246681
 19.34247463 22.82731004 42.29742109 42.29742731 42.3318642  42.3813995
 42.38140331 42.42401037 42.42401197 42.5133612  42.51336173 42.52407397
 83.18332766 83.3924255  83.39243063 83.76719945 84.12972164 84.12972643
 88.91211103 95.97514047]
   3 ( 0.000  0.333 -0.000)   [-10.58971981 -10.58815305  -0.53949416  -0.07071758   0.27368092
   0.27369721] [ 1.06232248  1.0680389   1.06806361  1.38164962  1.58250459  1.65084517
  1.65084866  1.77897228  2.30221157  2.30221221  2.46963237  2.49135373
  2.49135675  2.67818731  3.10181838  3.10182257  3.29246397  3.4344261
  3.43442674  3.68140245  3.68140366  3.86687789  3.95997136  3.95997418
  4.08521851  4.13941696  4.34426132  4.34426178  4.45457796  5.00709877
  5.01537849  5.01538931  5.04311419  5.16069266  5.16070137  5.29954981
  5.34325876  5.55323864  5.55324242  5.75240019  5.90423657  5.90424564
  6.14215262  6.14215903  6.40051342  6.40051436  6.58674729  6.8399378
  6.83994042  7.29494061  7.31459488  7.31460541  7.60692765  9.2861727
 17.88742133 18.35461932 18.35462957 18.83153645 19.13255087 19.3424668
 19.34247464 22.82731009 42.29742109 42.29742731 42.3318642  42.3813995
 42.38140331 42.42401037 42.42401197 42.5133612  42.51336173 42.52407397
 83.18332766 83.39242549 83.39243064 83.76719945 84.12972164 84.12972643
 88.91211103 95.97514045]
   4 (-0.000  0.333  0.333)   [-10.58953804 -10.58838365  -0.48959231   0.02231569   0.1320897
   0.1321038 ] [ 0.86594844  1.01791135  1.34680094  1.34680815  1.63233905  1.70284659
  1.98578408  2.12194255  2.1219465   2.26937561  2.30918642  2.30919237
  2.60556254  2.61174275  3.0685187   3.19805054  3.19805087  3.302556
  3.47165148  3.47977078  3.47977836  3.88282608  3.88282984  4.04928044
  4.07132922  4.47693375  4.5511838   4.55118753  4.65435101  4.75181087
  4.83368742  4.8336946   4.96368564  5.081812    5.23716703  5.36667946
  5.36668164  5.52713707  5.55167413  5.83359396  5.83359646  5.90717035
  6.03547405  6.25963226  6.25963815  6.35218867  7.0578628   7.05787079
  7.18709394  7.29154368  7.54676301  7.54677205  7.95258425  8.47242087
 18.00340247 18.06068238 18.06068927 19.02727349 19.63493523 19.7259247
 19.72593008 20.26546591 42.2742229  42.28226394 42.34260943 42.34697006
 42.38778223 42.38778628 42.42015114 42.42015544 42.45716104 42.71737813
 83.13024788 83.16672523 83.16672896 83.90640527 84.43086122 84.43086465
 90.23607934 91.24571426]
   5 (-0.000  0.333  0.667)   [-10.58929125 -10.58868887  -0.32824291  -0.16442243  -0.0514549
   0.16152   ] [ 0.96205016  1.29667355  1.30498532  1.38655032  1.40781439  1.65852342
  1.79614462  2.07356659  2.30487961  2.35630409  2.5767315   2.58207345
  2.70154349  2.80937444  2.86197461  3.0452509   3.06942881  3.0905771
  3.33413929  3.53782506  3.55449945  3.73102513  3.76255097  4.00182764
  4.07196298  4.27857399  4.34060198  4.35640206  4.45353183  4.48418128
  4.8005128   5.01619445  5.07850536  5.10991719  5.17585534  5.44780579
  5.46994412  5.63504837  5.78772612  5.80453069  5.96094961  5.96547945
  6.00501429  6.16075152  6.50735677  6.51170938  6.56416753  6.84786173
  6.85499022  6.89565969  7.31861926  7.35650597  7.78903982  8.67922878
 17.39047194 17.57096946 18.06143884 18.14937077 18.44509056 18.66328403
 20.25735337 21.73017375 42.29851992 42.34595631 42.34827226 42.38613382
 42.39015083 42.43624842 42.45435475 42.49627225 42.50982857 42.53082215
 82.65552549 82.81442005 83.21975175 83.24997819 83.47138795 83.60602254
 91.28070581 93.72106075]
   6 ( 0.000  0.667 -0.000)   [-10.58971981 -10.58815305  -0.53949416  -0.07071758   0.27368092
   0.27369721] [ 1.06232248  1.0680389   1.06806361  1.38164962  1.58250459  1.65084517
  1.65084866  1.77897228  2.30221157  2.30221221  2.46963237  2.49135373
  2.49135675  2.67818729  3.10181838  3.10182256  3.29246397  3.43442609
  3.43442674  3.68140245  3.68140366  3.86687789  3.95997136  3.95997417
  4.0852185   4.13941694  4.34426131  4.34426178  4.45457796  5.00709877
  5.01537848  5.01538931  5.04311419  5.16069265  5.16070136  5.2995498
  5.34325873  5.55323865  5.5532424   5.75240019  5.90423657  5.90424563
  6.14215262  6.14215903  6.40051342  6.40051436  6.58674729  6.83993771
  6.83994035  7.29494059  7.31459489  7.31460536  7.60692766  9.28617215
 17.88742133 18.35461932 18.35462956 18.83153645 19.13255087 19.34246681
 19.34247463 22.82730978 42.29742109 42.29742731 42.3318642  42.3813995
 42.38140331 42.42401037 42.42401197 42.5133612  42.51336173 42.52407397
 83.18332765 83.39242549 83.39243063 83.76719945 84.12972164 84.12972643
 88.91211102 95.97514039]
   7 ( 0.000  0.667  0.333)   [-10.58929125 -10.58868887  -0.32824291  -0.16442243  -0.0514549
   0.16152   ] [ 0.96205016  1.29667355  1.30498532  1.38655032  1.40781439  1.65852342
  1.79614462  2.07356659  2.30487961  2.35630409  2.5767315   2.58207345
  2.70154349  2.80937444  2.86197461  3.0452509   3.06942881  3.0905771
  3.3341393   3.53782503  3.55449945  3.73102513  3.76255098  4.00182764
  4.07196298  4.27857325  4.34060198  4.35640206  4.45353183  4.48418128
  4.8005128   5.01619445  5.07850536  5.10991717  5.17585534  5.44780579
  5.46994405  5.63504837  5.78772612  5.80453069  5.96094961  5.96547945
  6.00501354  6.16075152  6.50735651  6.51170938  6.56416753  6.84786177
  6.85499022  6.89565968  7.31861929  7.35650601  7.78903983  8.67922879
 17.39047194 17.57096946 18.06143884 18.14937077 18.44509056 18.66328403
 20.25735338 21.73017376 42.29851992 42.34595631 42.34827226 42.38613381
 42.39015083 42.43624842 42.45435475 42.49627225 42.50982857 42.53082215
 82.65552549 82.81442005 83.21975175 83.24997819 83.47138795 83.60602254
 91.28070581 93.72106075]
   8 (-0.000  0.667  0.667)   [-10.58953804 -10.58838365  -0.48959231   0.02231569   0.1320897
   0.1321038 ] [ 0.86594844  1.01791135  1.34680094  1.34680815  1.63233905  1.70284659
  1.98578408  2.12194255  2.1219465   2.26937561  2.30918642  2.30919237
  2.60556254  2.61174275  3.0685187   3.19805054  3.19805087  3.30255599
  3.47165148  3.47977073  3.47977833  3.8828258   3.88282968  4.04928044
  4.07132921  4.47693375  4.5511838   4.55118753  4.65435101  4.75181085
  4.83368716  4.83369447  4.96368564  5.081812    5.23716703  5.36667943
  5.36668163  5.52713707  5.55167413  5.83359361  5.83359617  5.90717035
  6.03547405  6.25963224  6.25963814  6.35218868  7.05786252  7.05787071
  7.18709395  7.29154367  7.5467635   7.54676694  7.95258419  8.47242
 18.00340247 18.06068228 18.06068925 19.02727345 19.63493513 19.72592416
 19.72592969 20.26546591 42.2742229  42.28226394 42.34260943 42.34697006
 42.38778223 42.38778627 42.42015114 42.42015544 42.45716104 42.71737812
 83.13024788 83.16672522 83.16672896 83.90640526 84.43086114 84.43086464
 90.23607934 91.24571426]
   9 ( 0.333  0.000  0.000)   [-10.58971981 -10.58815305  -0.53949416  -0.07071758   0.27368092
   0.27369721] [ 1.06232248  1.0680389   1.06806361  1.38164962  1.58250459  1.65084517
  1.65084867  1.77897228  2.30221157  2.30221221  2.46963239  2.49135373
  2.49135676  2.6781874   3.10181842  3.10182256  3.29246398  3.43442608
  3.43442687  3.68140247  3.68140367  3.86687789  3.95997141  3.95997417
  4.08521848  4.13941698  4.34426131  4.34426185  4.45457795  5.00709878
  5.01537849  5.01538931  5.04311419  5.16069273  5.16070136  5.29954981
  5.34325881  5.55323875  5.55324242  5.75240021  5.90423661  5.90424564
  6.14215268  6.14215903  6.40051342  6.40051437  6.5867473   6.83993764
  6.83994137  7.29494067  7.31459505  7.31460541  7.60692742  9.28617166
 17.88742132 18.35461942 18.35462955 18.83153646 19.13255085 19.34246685
 19.34247464 22.82730962 42.2974211  42.29742731 42.3318642  42.3813995
 42.38140331 42.42401037 42.42401197 42.5133612  42.51336174 42.52407397
 83.18332765 83.3924255  83.39243063 83.76719945 84.12972164 84.12972643
 88.91211103 95.97514028]
  10 ( 0.333 -0.000  0.333)   [-10.58953804 -10.58838365  -0.48959231   0.02231569   0.1320897
   0.1321038 ] [ 0.86594844  1.01791135  1.34680094  1.34680815  1.63233905  1.70284659
  1.98578408  2.12194255  2.1219465   2.26937561  2.30918642  2.30919237
  2.60556254  2.61174275  3.06851871  3.19805054  3.19805087  3.30255599
  3.47165149  3.47977076  3.47977836  3.88282596  3.88282988  4.04928044
  4.0713292   4.47693375  4.5511838   4.55118753  4.65435101  4.75181085
  4.83368733  4.83369463  4.96368564  5.081812    5.23716704  5.36667945
  5.36668165  5.52713707  5.55167413  5.83359377  5.83359656  5.90717035
  6.03547405  6.25963226  6.25963815  6.3521887   7.05786267  7.05787084
  7.18709394  7.29154369  7.54676165  7.54677279  7.95258427  8.47241936
 18.00340247 18.06068233 18.06068933 19.02727337 19.63493507 19.72592432
 19.72593053 20.26546591 42.2742229  42.28226394 42.34260943 42.34697006
 42.38778223 42.38778628 42.42015114 42.42015544 42.45716104 42.71737811
 83.13024788 83.16672522 83.16672899 83.90640524 84.43086112 84.43086489
 90.23607933 91.24571426]
  11 ( 0.333 -0.000  0.667)   [-10.58929125 -10.58868887  -0.32824291  -0.16442243  -0.0514549
   0.16152   ] [ 0.96205016  1.29667355  1.30498532  1.38655032  1.40781439  1.65852342
  1.79614462  2.07356659  2.30487962  2.3563041   2.5767315   2.58207345
  2.70154349  2.80937444  2.86197461  3.04525093  3.06942881  3.09057712
  3.33413928  3.53782526  3.55449947  3.73102513  3.76255128  4.00182764
  4.07196298  4.27857922  4.34060198  4.35640206  4.45353183  4.48418136
  4.80051281  5.01619444  5.07850536  5.10991734  5.17585534  5.44780598
  5.46994463  5.63504837  5.78772611  5.80453071  5.9609496   5.96547945
  6.00501961  6.16075158  6.50735866  6.51170937  6.56416753  6.84786172
  6.85499022  6.89565981  7.31862016  7.35650599  7.78903982  8.67922918
 17.39047194 17.57096946 18.06143885 18.14937078 18.44509056 18.66328403
 20.25735337 21.730174   42.29851992 42.34595631 42.34827226 42.38613382
 42.39015083 42.43624842 42.4543548  42.49627225 42.50982857 42.53082215
 82.65552549 82.81442005 83.21975175 83.2499782  83.47138795 83.60602254
 91.28070581 93.72106083]
  12 ( 0.333  0.333 -0.000)   [-10.58953804 -10.58838365  -0.48959231   0.02231569   0.1320897
   0.1321038 ] [ 0.86594844  1.01791135  1.34680094  1.34680815  1.63233905  1.70284659
  1.98578408  2.12194254  2.12194649  2.26937561  2.30918641  2.30919237
  2.60556254  2.61174275  3.06851871  3.19805052  3.19805086  3.30255599
  3.47165149  3.4797706   3.47977822  3.88282486  3.88282898  4.04928044
  4.0713292   4.47693375  4.5511838   4.55118753  4.65435101  4.75181085
  4.83368632  4.83369378  4.96368564  5.081812    5.23716704  5.36667928
  5.3666815   5.52713707  5.55167413  5.83359221  5.83359532  5.90717035
  6.03547405  6.2596322   6.2596381   6.35218869  7.05786151  7.05786986
  7.18709394  7.29154371  7.5467481   7.54676206  7.95258427  8.47241911
 18.00340247 18.06068195 18.06068897 19.02727335 19.63493504 19.72592179
 19.72592829 20.26546591 42.2742229  42.28226394 42.34260943 42.34697006
 42.38778222 42.38778626 42.42015114 42.42015544 42.45716104 42.71737811
 83.13024788 83.16672519 83.16672894 83.90640524 84.43086092 84.43086455
 90.23607932 91.24571426]
  13 ( 0.333  0.333  0.333)   [-10.58971985 -10.58815305  -0.53949204  -0.07070206   0.27368149
   0.27368149] [ 1.06234407  1.06805479  1.06805479  1.38164802  1.58250933  1.65083052
  1.65083053  1.77897036  2.30220319  2.30220319  2.46963479  2.49135659
  2.49135659  2.67819124  3.10182595  3.10182596  3.29246302  3.43443177
  3.43443179  3.68140659  3.6814066   3.86689113  3.95997152  3.95997153
  4.08521061  4.13941146  4.34425473  4.34425474  4.45457421  5.00710226
  5.01537554  5.01537554  5.04312338  5.16069763  5.16069765  5.29955294
  5.34325539  5.5532481   5.55324812  5.7523968   5.90424285  5.90424286
  6.14215702  6.14215705  6.40050823  6.40050823  6.58674007  6.83993525
  6.83993551  7.29492804  7.31460807  7.3146081   7.60693006  9.28616634
 17.88741557 18.35462861 18.35462864 18.83152584 19.13255451 19.34247479
 19.3424748  22.82730437 42.29742488 42.29742488 42.33185873 42.3814024
 42.3814024  42.4240136  42.4240136  42.51336294 42.51336294 42.52406827
 83.18332275 83.39243052 83.39243053 83.76719468 84.12972645 84.12972645
 88.91211086 95.97514004]
  14 ( 0.333  0.333  0.667)   [-10.58929129 -10.58868885  -0.32823756  -0.16442487  -0.05144739
   0.16150997] [ 0.96207071  1.29666468  1.30497961  1.38655689  1.40780819  1.65851583
  1.79614429  2.07357005  2.30488504  2.35629726  2.57673519  2.58206347
  2.70154727  2.80936947  2.86197766  3.0452469   3.0694274   3.09057011
  3.33414344  3.53783665  3.55450357  3.73102089  3.76255503  4.0018313
  4.0719768   4.27857765  4.3405996   4.35640641  4.45352894  4.48417085
  4.80050218  5.01619122  5.07850498  5.10991723  5.1758623   5.44780558
  5.4699457   5.63504734  5.78773041  5.80452808  5.96093974  5.96547683
  6.0050138   6.16074755  6.50735453  6.51170549  6.56416498  6.84786378
  6.85499712  6.89566865  7.31861838  7.3565023   7.78903121  8.67923606
 17.39047913 17.5709636  18.06143528 18.14937624 18.44508506 18.66328399
 20.257355   21.73017631 42.29852323 42.3459554  42.34827283 42.38613543
[...]
  6.00727805  6.16552243  6.51269779  6.51796478  6.56964041  6.85120007
  6.85910471  6.90141776  7.32135988  7.36023825  7.79734119  8.68703316
 17.40370632 17.58395708 18.07404159 18.16175214 18.45765915 18.67593566
 20.26981953 21.74226746 42.31249445 42.35994268 42.3622324  42.40012295
 42.40416104 42.45023286 42.46835346 42.51022864 42.52380897 42.54478411
 82.66683779 82.82570088 83.2309807  83.26119354 83.48262168 83.6172622
 91.29044782 93.73065047]
  12 ( 0.333  0.333 -0.000)   [-10.57593997 -10.57474948  -0.48133404   0.02511166   0.13010371
   0.13010372] [ 0.8770437   1.02586263  1.35411938  1.35411939  1.64305229  1.70515772
  1.98682353  2.12071663  2.12071665  2.26641887  2.31001692  2.31001693
  2.60922363  2.61324822  3.07110459  3.19925726  3.19925729  3.30139041
  3.47294017  3.48469757  3.48469776  3.88417351  3.88417467  4.05351668
  4.07732968  4.48159437  4.55348384  4.55348384  4.65931119  4.75836999
  4.83805035  4.83805142  4.97037446  5.08669602  5.24138978  5.37022791
  5.3702281   5.52864289  5.55457345  5.83848013  5.83848175  5.90968449
  6.03900247  6.26542589  6.26542594  6.35529661  7.06324934  7.06325059
  7.1958758   7.2944765   7.55169366  7.55170772  7.96037522  8.47553071
 18.01600997 18.07350933 18.07350976 19.03958314 19.64784081 19.73848381
 19.73848667 20.27792198 42.28818682 42.2962359  42.35658056 42.36092767
 42.40179114 42.40179116 42.43414477 42.43414477 42.47110818 42.73133654
 83.14148852 83.17799596 83.17799601 83.91764301 84.44208209 84.44208248
 90.24585955 91.25547358]
  13 ( 0.333  0.333  0.333)   [-10.57612978 -10.57452179  -0.53084574  -0.0672061    0.2695485
   0.2695485 ] [ 1.07627676  1.07627676  1.07724699  1.38773741  1.58702223  1.65147247
  1.65147247  1.78279913  2.30376369  2.30376369  2.47032208  2.49157059
  2.49157059  2.67486814  3.10460485  3.10460485  3.2954733   3.43746725
  3.43746728  3.68367672  3.68367673  3.87100032  3.9634183   3.96341831
  4.08904103  4.14476478  4.34672847  4.34672848  4.45897364  5.00956311
  5.02102381  5.02102382  5.04707527  5.16502303  5.16502306  5.30387742
  5.34852357  5.55749076  5.55749078  5.75547256  5.90812488  5.90812489
  6.14624778  6.14624781  6.40420179  6.40420179  6.59340373  6.84419765
  6.84419791  7.30035183  7.32014802  7.32014805  7.61319651  9.29110075
 17.9002589  18.36765088 18.36765091 18.84403822 19.14529362 19.35479487
 19.35479488 22.83911578 42.31139798 42.31139798 42.34587776 42.39539985
 42.39539985 42.43797898 42.43797898 42.52730807 42.52730807 42.53806004
 83.19457703 83.4037117  83.4037117  83.7784334  84.14092485 84.14092485
 88.9219884  95.98456899]
  14 ( 0.333  0.333  0.667)   [-10.57567577 -10.57505977  -0.32073978  -0.15921211  -0.05039977
   0.15856236] [ 0.97064418  1.30524409  1.31069556  1.39884292  1.41165257  1.65751919
  1.80050341  2.07214677  2.30433216  2.35851206  2.57815805  2.58279156
  2.70428393  2.8111854   2.8626793   3.04784869  3.07109061  3.09044053
  3.33345236  3.54173567  3.55480002  3.73370476  3.76128209  4.00601897
  4.07992112  4.27728141  4.34385565  4.35947277  4.45664467  4.48926407
  4.80688058  5.01919627  5.0831179   5.11621695  5.18106746  5.45106562
  5.47368527  5.63880772  5.79213211  5.80897785  5.96574714  5.96996881
  6.00727356  6.16552242  6.51269616  6.51796479  6.56964041  6.85120008
  6.85910472  6.90141766  7.32135939  7.36023836  7.79734121  8.68703278
 17.40370632 17.58395708 18.07404159 18.16175214 18.45765915 18.67593565
 20.26981955 21.74226719 42.31249445 42.35994267 42.3622324  42.40012295
 42.40416104 42.45023286 42.46835342 42.51022864 42.52380897 42.5447841
 82.66683779 82.82570088 83.2309807  83.26119354 83.48262168 83.6172622
 91.29044782 93.73065043]
  15 ( 0.333  0.667 -0.000)   [-10.57567577 -10.57505977  -0.32073979  -0.15921209  -0.05039979
   0.15856238] [ 0.97064417  1.3052441   1.31069555  1.39884291  1.41165258  1.65751919
  1.80050341  2.07214677  2.30433217  2.35851206  2.57815805  2.58279156
  2.70428393  2.8111854   2.8626793   3.04784871  3.07109061  3.09044052
  3.33345235  3.54173569  3.55480004  3.73370476  3.7612823   4.00601896
  4.07992113  4.27728189  4.34385565  4.35947276  4.45664467  4.48926412
  4.80688059  5.01919628  5.08311789  5.11621696  5.18106745  5.45106575
  5.47368532  5.63880771  5.79213212  5.80897786  5.96574714  5.9699688
  6.00727404  6.16552248  6.51269634  6.5179648   6.56964042  6.85120006
  6.85910471  6.90141766  7.32135985  7.36023838  7.79734119  8.68703323
 17.40370632 17.58395708 18.07404159 18.16175213 18.45765915 18.67593566
 20.26981953 21.74226749 42.31249445 42.35994268 42.3622324  42.40012294
 42.40416104 42.45023286 42.46835342 42.51022864 42.52380897 42.54478411
 82.66683779 82.82570088 83.2309807  83.26119354 83.48262168 83.6172622
 91.29044782 93.73065048]
  16 ( 0.333  0.667  0.333)   [-10.57567577 -10.57505977  -0.32073978  -0.15921211  -0.05039977
   0.15856236] [ 0.97064418  1.30524409  1.31069556  1.39884292  1.41165257  1.65751919
  1.80050341  2.07214677  2.30433215  2.35851206  2.57815805  2.58279155
  2.70428393  2.8111854   2.8626793   3.04784859  3.07109061  3.09044053
  3.33345223  3.54173571  3.5547999   3.73370476  3.76128161  4.00601897
  4.07992112  4.27728249  4.34385562  4.35947273  4.45664467  4.48926394
  4.80688056  5.01919627  5.08311787  5.11621698  5.18106746  5.45106532
  5.47368538  5.63880772  5.7921321   5.80897781  5.96574714  5.9699688
  6.00727465  6.16552215  6.51269655  6.51796477  6.56964041  6.8511997
  6.85910472  6.90141768  7.3213589   7.36023782  7.79734117  8.68703208
 17.40370632 17.58395708 18.07404159 18.16175214 18.45765914 18.67593563
 20.26981948 21.74226681 42.31249445 42.35994267 42.3622324  42.40012295
 42.40416104 42.45023286 42.46835343 42.51022864 42.52380897 42.5447841
 82.66683779 82.82570088 83.2309807  83.26119354 83.48262167 83.6172622
 91.2904478  93.7306503 ]
  17 ( 0.333  0.667  0.667)   [-10.57567577 -10.57505977  -0.32073978  -0.15921211  -0.05039977
   0.15856236] [ 0.97064418  1.30524409  1.31069556  1.39884293  1.41165257  1.65751919
  1.80050341  2.07214677  2.30433216  2.35851206  2.57815805  2.58279156
  2.70428393  2.8111854   2.8626793   3.0478487   3.07109061  3.09044053
  3.33345231  3.54173574  3.55480006  3.73370476  3.76128228  4.00601897
  4.07992112  4.27728321  4.34385566  4.35947274  4.45664467  4.48926411
  4.80688059  5.01919627  5.08311788  5.116217    5.18106746  5.45106574
  5.47368544  5.63880772  5.79213211  5.80897786  5.96574714  5.9699688
  6.00727538  6.16552251  6.51269683  6.51796479  6.56964041  6.85119991
  6.85910472  6.9014177   7.32135959  7.36023841  7.79734116  8.68703342
 17.40370632 17.58395708 18.07404159 18.16175214 18.45765915 18.67593565
 20.26981948 21.74226763 42.31249445 42.35994268 42.3622324  42.40012295
 42.40416104 42.45023286 42.46835343 42.51022864 42.52380897 42.5447841
 82.66683779 82.82570088 83.2309807  83.26119354 83.48262168 83.6172622
 91.29044781 93.73065049]
  18 ( 0.667  0.000  0.000)   [-10.57612978 -10.57452179  -0.53084574  -0.06720611   0.26954849
   0.26954852] [ 1.07627677  1.07627678  1.07724697  1.38773741  1.58702223  1.65147247
  1.65147248  1.78279913  2.30376369  2.30376369  2.47032213  2.49157059
  2.4915706   2.67486837  3.10460485  3.10460488  3.29547333  3.43746726
  3.43746734  3.68367672  3.68367673  3.87100031  3.9634183   3.96341833
  4.08904104  4.14476487  4.34672847  4.34672851  4.45897365  5.0095631
  5.02102382  5.02102382  5.04707528  5.16502305  5.16502308  5.30387746
  5.3485237   5.55749076  5.55749083  5.75547268  5.90812488  5.90812492
  6.14624781  6.14624781  6.40420179  6.4042018   6.59340375  6.84419781
  6.8441983   7.30035196  7.320148    7.32014812  7.61319707  9.29110125
 17.90025896 18.3676509  18.36765094 18.84403823 19.14529381 19.35479486
 19.35479489 22.83911577 42.31139798 42.31139798 42.34587776 42.39539985
 42.39539985 42.43797898 42.43797898 42.52730807 42.52730808 42.53806004
 83.19457704 83.4037117  83.40371171 83.77843341 84.14092484 84.14092485
 88.92198841 95.98456903]
  19 ( 0.667  0.000  0.333)   [-10.57567577 -10.57505977  -0.32073979  -0.15921209  -0.05039979
   0.15856238] [ 0.97064417  1.3052441   1.31069555  1.39884291  1.41165258  1.65751919
  1.80050341  2.07214677  2.30433216  2.35851207  2.57815805  2.58279156
  2.70428393  2.81118541  2.8626793   3.04784871  3.07109061  3.09044053
  3.33345238  3.54173582  3.55480003  3.73370477  3.76128239  4.00601896
  4.07992113  4.27728508  4.34385565  4.35947277  4.45664467  4.48926414
  4.80688059  5.01919628  5.08311789  5.11621705  5.18106745  5.45106581
  5.47368562  5.63880771  5.79213212  5.80897786  5.96574714  5.96996881
  6.00727725  6.16552247  6.5126975   6.51796479  6.56964042  6.85120014
  6.85910471  6.90141774  7.32136022  7.3602383   7.7973412   8.68703334
 17.40370632 17.58395708 18.0740416  18.16175214 18.45765915 18.67593566
 20.26981954 21.74226757 42.31249445 42.35994268 42.3622324  42.40012295
 42.40416104 42.45023286 42.46835345 42.51022864 42.52380897 42.54478411
 82.66683779 82.82570088 83.2309807  83.26119354 83.48262168 83.6172622
 91.29044783 93.73065051]
  20 ( 0.667 -0.000  0.667)   [-10.57593997 -10.57474948  -0.48133404   0.02511166   0.13010371
   0.13010372] [ 0.8770437   1.02586263  1.35411938  1.35411939  1.64305229  1.70515772
  1.98682353  2.12071664  2.12071665  2.26641887  2.31001692  2.31001693
  2.60922363  2.61324822  3.07110459  3.19925728  3.19925729  3.30139041
  3.47294016  3.48469772  3.4846978   3.88417448  3.88417494  4.05351668
  4.07732969  4.48159437  4.55348384  4.55348384  4.65931119  4.75836999
  4.83805125  4.83805169  4.97037446  5.08669602  5.24138977  5.37022807
  5.37022815  5.52864289  5.55457345  5.83848146  5.83848212  5.9096845
  6.03900247  6.26542593  6.26542596  6.35529662  7.06325045  7.06325096
  7.19587582  7.29447645  7.55170563  7.55171137  7.96037516  8.47553117
 18.01600997 18.07350969 18.07350988 19.0395832  19.64784086 19.73848611
 19.73848739 20.27792198 42.28818682 42.2962359  42.35658056 42.36092767
 42.40179115 42.40179116 42.43414477 42.43414478 42.47110818 42.73133654
 83.14148852 83.17799599 83.17799603 83.91764302 84.44208231 84.44208259
 90.24585956 91.25547358]
  21 ( 0.667  0.333  0.000)   [-10.57567577 -10.57505977  -0.32073979  -0.15921209  -0.05039979
   0.15856238] [ 0.97064417  1.3052441   1.31069555  1.39884291  1.41165258  1.65751919
  1.80050341  2.07214677  2.30433217  2.35851206  2.57815805  2.58279156
  2.70428393  2.8111854   2.8626793   3.04784873  3.07109061  3.09044053
  3.33345233  3.54173573  3.55480007  3.73370476  3.76128238  4.00601896
  4.07992113  4.27728289  4.34385566  4.35947275  4.45664467  4.48926414
  4.80688059  5.01919628  5.08311788  5.11621699  5.18106745  5.45106581
  5.47368541  5.63880771  5.79213212  5.80897787  5.96574714  5.9699688
  6.00727504  6.16552253  6.5126967   6.51796481  6.56964041  6.85119999
  6.85910471  6.90141769  7.3213599   7.36023852  7.79734118  8.68703336
 17.40370632 17.58395708 18.07404159 18.16175214 18.45765916 18.67593565
 20.26981951 21.74226756 42.31249445 42.35994268 42.3622324  42.40012295
 42.40416104 42.45023286 42.46835343 42.51022864 42.52380897 42.54478411
 82.66683779 82.82570088 83.2309807  83.26119354 83.48262168 83.6172622
 91.29044782 93.7306505 ]
  22 ( 0.667  0.333  0.333)   [-10.57567577 -10.57505977  -0.32073978  -0.15921211  -0.05039977
   0.15856236] [ 0.97064418  1.30524409  1.31069556  1.39884292  1.41165257  1.65751919
  1.80050341  2.07214677  2.30433216  2.35851206  2.57815805  2.58279156
  2.70428393  2.8111854   2.8626793   3.04784868  3.07109061  3.09044053
  3.33345234  3.54173575  3.55480002  3.73370476  3.7612821   4.00601897
  4.07992112  4.27728342  4.34385565  4.35947277  4.45664467  4.48926407
  4.80688058  5.01919627  5.08311789  5.11621701  5.18106746  5.45106562
  5.47368547  5.63880772  5.79213211  5.80897785  5.96574714  5.9699688
  6.00727559  6.1655224   6.51269689  6.5179648   6.56964041  6.85120001
  6.85910472  6.9014177   7.32135953  7.36023835  7.79734121  8.68703282
 17.40370632 17.58395708 18.07404159 18.16175214 18.45765915 18.67593565
 20.26981954 21.74226722 42.31249445 42.35994267 42.3622324  42.40012295
 42.40416104 42.45023286 42.46835344 42.51022864 42.52380897 42.5447841
 82.66683779 82.82570088 83.2309807  83.26119354 83.48262168 83.6172622
 91.29044782 93.73065043]
  23 ( 0.667  0.333  0.667)   [-10.57567577 -10.57505977  -0.32073978  -0.15921211  -0.05039977
   0.15856236] [ 0.97064418  1.30524409  1.31069556  1.39884292  1.41165257  1.65751919
  1.80050341  2.07214677  2.30433215  2.35851206  2.57815805  2.58279155
  2.70428393  2.8111854   2.8626793   3.04784858  3.07109061  3.09044053
  3.33345225  3.54173572  3.55479992  3.73370476  3.76128168  4.00601897
  4.07992112  4.27728275  4.34385563  4.35947272  4.45664467  4.48926395
  4.80688056  5.01919627  5.08311787  5.11621699  5.18106746  5.45106537
  5.4736854   5.63880772  5.79213211  5.80897781  5.96574714  5.9699688
  6.00727491  6.1655222   6.51269667  6.51796475  6.5696404   6.85119973
  6.85910472  6.90141769  7.32135883  7.36023775  7.79734114  8.68703253
 17.40370632 17.58395708 18.07404159 18.16175214 18.45765914 18.67593564
 20.26981944 21.74226715 42.31249445 42.35994267 42.3622324  42.40012295
 42.40416104 42.45023286 42.46835343 42.51022864 42.52380897 42.5447841
 82.66683779 82.82570088 83.2309807  83.26119354 83.48262167 83.6172622
 91.2904478  93.73065033]
  24 ( 0.667  0.667 -0.000)   [-10.57593997 -10.57474948  -0.48133404   0.02511166   0.13010371
   0.13010372] [ 0.8770437   1.02586263  1.35411938  1.35411939  1.64305229  1.70515772
  1.98682353  2.12071664  2.12071665  2.26641887  2.31001692  2.31001693
  2.60922363  2.61324822  3.07110459  3.19925728  3.19925729  3.30139041
  3.47294017  3.48469767  3.48469781  3.88417412  3.88417499  4.05351668
  4.07732968  4.48159437  4.55348384  4.55348384  4.65931119  4.75836999
  4.83805093  4.83805173  4.97037446  5.08669602  5.24138977  5.37022802
  5.37022816  5.52864289  5.55457345  5.83848098  5.83848219  5.90968449
  6.03900247  6.26542592  6.26542596  6.35529661  7.06325005  7.063251
  7.19587581  7.2944765   7.55170157  7.55171203  7.96037517  8.47553094
 18.01600997 18.07350958 18.0735099  19.03958318 19.64784084 19.73848545
 19.73848755 20.27792198 42.28818682 42.2962359  42.35658056 42.36092767
 42.40179115 42.40179116 42.43414477 42.43414478 42.47110818 42.73133654
 83.14148852 83.17799599 83.17799603 83.91764301 84.44208234 84.44208261
 90.24585956 91.25547358]
  25 ( 0.667  0.667  0.333)   [-10.57567577 -10.57505977  -0.32073978  -0.15921211  -0.05039977
   0.15856236] [ 0.97064418  1.30524409  1.31069556  1.39884293  1.41165257  1.65751919
  1.80050341  2.07214677  2.30433216  2.35851206  2.57815805  2.58279156
  2.70428393  2.8111854   2.8626793   3.0478487   3.07109061  3.09044053
  3.33345238  3.54173565  3.55480005  3.73370476  3.76128228  4.00601897
  4.07992112  4.277281    4.34385566  4.35947276  4.45664467  4.48926411
  4.80688059  5.01919627  5.08311789  5.11621694  5.18106746  5.45106574
  5.47368523  5.63880772  5.79213212  5.80897786  5.96574714  5.96996881
  6.00727315  6.1655225   6.51269604  6.51796478  6.56964041  6.8512001
  6.85910472  6.90141765  7.32135964  7.36023834  7.79734118  8.68703339
 17.40370632 17.58395708 18.07404159 18.16175214 18.45765915 18.67593566
 20.26981952 21.74226763 42.31249445 42.35994268 42.3622324  42.40012295
 42.40416104 42.45023286 42.46835341 42.51022864 42.52380897 42.5447841
 82.66683779 82.82570088 83.2309807  83.26119354 83.48262168 83.6172622
 91.29044782 93.73065049]
  26 ( 0.667  0.667  0.667)   [-10.57612978 -10.57452179  -0.53084574  -0.0672061    0.2695485
   0.2695485 ] [ 1.07627676  1.07627676  1.07724699  1.38773742  1.58702224  1.65147247
  1.65147248  1.78279913  2.30376369  2.30376369  2.47032209  2.49157059
  2.4915706   2.67486819  3.10460485  3.10460487  3.29547331  3.43746725
  3.43746732  3.68367672  3.68367673  3.87100032  3.9634183   3.96341832
  4.08904102  4.14476478  4.34672847  4.3467285   4.45897364  5.00956311
  5.02102381  5.02102382  5.04707527  5.16502304  5.16502308  5.30387741
  5.34852356  5.55749077  5.5574908   5.7554726   5.90812488  5.9081249
  6.14624779  6.14624784  6.40420179  6.40420179  6.59340373  6.8441977
  6.84419825  7.30035185  7.32014803  7.32014807  7.61319688  9.29110006
 17.90025892 18.36765088 18.36765095 18.84403822 19.14529373 19.35479487
 19.35479489 22.83911522 42.31139798 42.31139798 42.34587776 42.39539985
 42.39539985 42.43797898 42.43797898 42.52730807 42.52730808 42.53806004
 83.19457703 83.4037117  83.40371171 83.77843341 84.14092485 84.14092485
 88.9219884  95.98456892]
    CPU time for get_k_kpts: make_kpt ki>=kj (0,*)      3.19 sec, wall time      0.11 sec
    CPU time for get_k_kpts: make_kpt ki>=kj (1,*)      6.66 sec, wall time      0.22 sec
    CPU time for get_k_kpts: make_kpt ki>=kj (2,*)     15.67 sec, wall time      0.53 sec
    CPU time for get_k_kpts: make_kpt ki>=kj (3,*)     18.76 sec, wall time      0.61 sec
    CPU time for get_k_kpts: make_kpt ki>=kj (4,*)     19.19 sec, wall time      0.63 sec
    CPU time for get_k_kpts: make_kpt ki>=kj (5,*)     26.17 sec, wall time      0.86 sec
    CPU time for get_k_kpts: make_kpt ki>=kj (6,*)     26.74 sec, wall time      0.91 sec
    CPU time for get_k_kpts: make_kpt ki>=kj (7,*)     29.48 sec, wall time      0.99 sec
    CPU time for get_k_kpts: make_kpt ki>=kj (8,*)     35.11 sec, wall time      1.14 sec
    CPU time for get_k_kpts: make_kpt ki>=kj (9,*)     48.92 sec, wall time      1.61 sec
    CPU time for get_k_kpts: make_kpt ki>=kj (10,*)     44.90 sec, wall time      1.44 sec
    CPU time for get_k_kpts: make_kpt ki>=kj (11,*)     52.59 sec, wall time      1.69 sec
    CPU time for get_k_kpts: make_kpt ki>=kj (12,*)     62.56 sec, wall time      2.03 sec
    CPU time for get_k_kpts: make_kpt ki>=kj (13,*)     65.04 sec, wall time      2.14 sec
    CPU time for get_k_kpts: make_kpt ki>=kj (14,*)     68.60 sec, wall time      2.21 sec
    CPU time for get_k_kpts: make_kpt ki>=kj (15,*)     64.77 sec, wall time      2.10 sec
    CPU time for get_k_kpts: make_kpt ki>=kj (16,*)     72.33 sec, wall time      2.32 sec
    CPU time for get_k_kpts: make_kpt ki>=kj (17,*)     82.45 sec, wall time      2.65 sec
    CPU time for get_k_kpts: make_kpt ki>=kj (18,*)     91.88 sec, wall time      2.98 sec
    CPU time for get_k_kpts: make_kpt ki>=kj (19,*)     85.61 sec, wall time      2.75 sec
    CPU time for get_k_kpts: make_kpt ki>=kj (20,*)     87.95 sec, wall time      2.80 sec
    CPU time for get_k_kpts: make_kpt ki>=kj (21,*)     90.48 sec, wall time      2.90 sec
    CPU time for get_k_kpts: make_kpt ki>=kj (22,*)     99.21 sec, wall time      3.19 sec
    CPU time for get_k_kpts: make_kpt ki>=kj (23,*)    103.42 sec, wall time      3.32 sec
    CPU time for get_k_kpts: make_kpt ki>=kj (24,*)    105.42 sec, wall time      3.42 sec
    CPU time for get_k_kpts: make_kpt ki>=kj (25,*)    106.03 sec, wall time      3.38 sec
    CPU time for get_k_kpts: make_kpt ki>=kj (26,*)     98.21 sec, wall time      3.17 sec
Monkhorst pack size [3 3 3] ew_eta 2.0680636387390696 ew_cut 3.402350398388744
Ewald components = 0, -1.16695765003732, 1.05358783663642
    CPU time for get_j pass 1     29.24 sec, wall time      1.20 sec
    CPU time for get_j pass 2      6.23 sec, wall time      0.59 sec
    CPU time for vj and vk   1650.94 sec, wall time     54.07 sec
Ewald components = 3.0606179073546e-132, -242.469443607053, 213.698400957796
E1 = (-51.27586912350101+3.022135922635768e-14j)  E_coul = (4.277494077824738+1.1906182686669111e-14j)
Extra cycle  E= -75.7694176949332  delta_E= -5.05e-10  |g|= 4.09e-05  |ddm|= 0.0995
    CPU time for scf_cycle  43117.65 sec, wall time   1541.72 sec
    CPU time for SCF  43117.69 sec, wall time   1541.75 sec
converged SCF energy = -75.7694176949332
