#INFO: **** input file is /burg/ccce/users/eav2136/projects/core_level_spectroscopy/01_peommp2_cbe/meanfield.py ****
#!/usr/bin/env python
import json
from pyscf.pbc import gto, scf
from pyscf.pbc.tools import lattice, pyscf_ase
from pyscf.pbc.scf import chkfile
from fileutils import load, dump
import sys

material = load("data/{}".format(sys.argv[1]))
# Create Cell
cell = gto.Cell()
ase_atom = lattice.get_ase_atom(material["formula"])
cell.atom = pyscf_ase.ase_atoms_to_pyscf(ase_atom)
cell.a = ase_atom.cell[:]
cell.unit = "B"
cell.basis = material["basis"]
cell.exp_to_discard = material["exp_to_discard"]
cell.verbose = 7
cell.build()

# Mean Field
kdensity = material["kdensity"]
kmesh = [kdensity, kdensity, kdensity]
kpts = cell.make_kpts(kmesh, scaled_center=material["vb_scaled_center"])
mymf = scf.KRHF(cell, kpts=kpts, exxdiv="ewald")
mymf.chkfile = "data/{}".format(material["chk"])
mymf = mymf.density_fit()
mymf.with_df._cderi_to_save = "data/{}".format(material["cderi"])
ekrhf = mymf.kernel()
convergence = mymf.converged
mymf_data = dict([("ekrhf", float(ekrhf)),
                  ("convergence", bool(convergence))])
dump(mymf_data, "data/{}".format(material["ekrhf"]))
#INFO: ******************** input file end ********************


System: uname_result(system='Linux', node='g146', release='4.18.0-193.el8.x86_64', version='#1 SMP Fri Mar 27 14:35:58 UTC 2020', machine='x86_64')  Threads 32
Python 3.10.12 (main, Jul 29 2023, 11:27:27) [GCC 13.2.0]
numpy 1.25.1  scipy 1.10.1
Date: Mon Jan 15 18:42:41 2024
PySCF version 2.0.1
PySCF path  /burg/berkelbach/users/eav2136/builds/pyscf/projected-cvs/pyscf
GIT ORIG_HEAD 0bfbc692adf3ea63b8a509210433219cd1c472a2
GIT HEAD (branch projected-cvs) e14caaa2dddc538b9be2d86f01e5b456fc92da36

[ENV] PYSCF_TMPDIR /burg/ccce/users/eav2136/projects/core_level_spectroscopy/01_peommp2_cbe/tmp
[ENV] PYSCF_MAX_MEMORY 700000
[CONFIG] DEBUG = False
[CONFIG] MAX_MEMORY = 700000
[CONFIG] TMPDIR = /burg/ccce/users/eav2136/projects/core_level_spectroscopy/01_peommp2_cbe/tmp
[CONFIG] UNIT = angstrom
[CONFIG] VERBOSE = 3
[CONFIG] conf_file = None
[INPUT] verbose = 7
[INPUT] max_memory = 700000 
[INPUT] num. atoms = 2
[INPUT] num. electrons = 12
[INPUT] charge = 0
[INPUT] spin (= nelec alpha-beta = 2S) = 0
[INPUT] symmetry False subgroup None
[INPUT] Mole.unit = B
[INPUT]  1 C      0.000000000000   0.000000000000   0.000000000000 AA    0.000000000000   0.000000000000   0.000000000000 Bohr
[INPUT]  2 C      0.891699936031   0.891699936031   0.891699936031 AA    1.685068664391   1.685068664391   1.685068664391 Bohr
[INPUT] ---------------- BASIS SET ---------------- 
[INPUT] l, kappa, [nprim/nctr], expnt,             c_1 c_2 ...
[INPUT] C
[INPUT] 0    0    [8    /2   ]  8236              0.000531 -0.000113
                                1235              0.004108 -0.000878
                                280.8             0.021087 -0.00454
                                79.27             0.081853 -0.018133
                                25.59             0.234817 -0.05576
                                8.997             0.434401 -0.126895
                                3.319             0.346129 -0.170352
                                0.3643            -0.008983 0.598684
[INPUT] 0    0    [1    /1   ]  0.9059               1
[INPUT] 0    0    [1    /1   ]  0.1285               1
[INPUT] 1    0    [3    /1   ]  18.71             0.014031
                                4.133             0.086866
                                1.2               0.290216
[INPUT] 1    0    [1    /1   ]  0.3827               1
[INPUT] 1    0    [1    /1   ]  0.1209               1
[INPUT] 2    0    [1    /1   ]  1.097                1
[INPUT] 2    0    [1    /1   ]  0.318                1
[INPUT] 3    0    [1    /1   ]  0.761                1
[INPUT] 0    0    [1    /1   ]  4.292                1
[INPUT] 0    0    [1    /1   ]  11.876               1
[INPUT] 1    0    [1    /1   ]  8.778                1
[INPUT] 1    0    [1    /1   ]  33.19                1
[INPUT] 2    0    [1    /1   ]  14.839               1

Ewald components = 3.0606179073546e-132, -242.469443607053, 213.698400957796
nuclear repulsion = -28.7710426492569
number of shells = 28
number of NR pGTOs = 110
number of NR cGTOs = 86
basis = ccpcvtz
ecp = {}
bas 0, expnt(s) = [8.236e+03 1.235e+03 2.808e+02 7.927e+01 2.559e+01 8.997e+00 3.319e+00
 3.643e-01]
bas 1, expnt(s) = [0.9059]
bas 2, expnt(s) = [0.1285]
bas 3, expnt(s) = [18.71   4.133  1.2  ]
bas 4, expnt(s) = [0.3827]
bas 5, expnt(s) = [0.1209]
bas 6, expnt(s) = [1.097]
bas 7, expnt(s) = [0.318]
bas 8, expnt(s) = [0.761]
bas 9, expnt(s) = [4.292]
bas 10, expnt(s) = [11.876]
bas 11, expnt(s) = [8.778]
bas 12, expnt(s) = [33.19]
bas 13, expnt(s) = [14.839]
bas 14, expnt(s) = [8.236e+03 1.235e+03 2.808e+02 7.927e+01 2.559e+01 8.997e+00 3.319e+00
 3.643e-01]
bas 15, expnt(s) = [0.9059]
bas 16, expnt(s) = [0.1285]
bas 17, expnt(s) = [18.71   4.133  1.2  ]
bas 18, expnt(s) = [0.3827]
bas 19, expnt(s) = [0.1209]
bas 20, expnt(s) = [1.097]
bas 21, expnt(s) = [0.318]
bas 22, expnt(s) = [0.761]
bas 23, expnt(s) = [4.292]
bas 24, expnt(s) = [11.876]
bas 25, expnt(s) = [8.778]
bas 26, expnt(s) = [33.19]
bas 27, expnt(s) = [14.839]
CPU time:         1.05
lattice vectors  a1 [0.000000000, 3.370137329, 3.370137329]
                 a2 [3.370137329, 0.000000000, 3.370137329]
                 a3 [3.370137329, 3.370137329, 0.000000000]
dimension = 3
low_dim_ft_type = None
Cell volume = 76.5549
rcut = 22.27072948899357 (nimgs = [6 6 6])
lattice sum = 1313 cells
precision = 1e-08
pseudo = None
ke_cutoff = 105639.11192401215
    = [570 570 570] mesh (185193000 PWs)


******** <class 'pyscf.pbc.scf.khf.KRHF'> ********
method = KRHF-KSCF-RHF-SCF-RHF
initial guess = minao
damping factor = 0
level_shift factor = 0
DIIS = <class 'pyscf.scf.diis.CDIIS'>
diis_start_cycle = 1
diis_space = 8
SCF conv_tol = 1e-07
SCF conv_tol_grad = None
SCF max_cycles = 50
direct_scf = True
direct_scf_tol = 1e-13
chkfile to save SCF result = data/c_ccpcvtz_k2_C_1s_nvir_act30.chk
max_memory 700000 MB (current use 110 MB)


******** PBC SCF flags ********
N kpts = 8
kpts = [[ 0.          0.          0.        ]
 [ 0.46609268  0.46609268 -0.46609268]
 [ 0.46609268 -0.46609268  0.46609268]
 [ 0.93218535  0.          0.        ]
 [-0.46609268  0.46609268  0.46609268]
 [ 0.          0.93218535  0.        ]
 [ 0.          0.          0.93218535]
 [ 0.46609268  0.46609268  0.46609268]]
Exchange divergence treatment (exxdiv) = ewald
Monkhorst pack size [2 2 2] ew_eta 3.0566830812214194 ew_cut 2.30320412508748
Ewald components = 0, -1.72482326343322, 1.55476854344923
    madelung (= occupied orbital energy shift) = 0.3401094399679656
    Total energy shift due to Ewald probe charge = -1/2 * Nelec*madelung = -2.04065663981
DF object = <pyscf.pbc.df.df.GDF object at 0x155553f37fa0>
Set gradient conv threshold to 0.000316228
Big error detected in the electron number of initial guess density matrix (Ne/cell = 11.9679)!
  This can cause huge error in Fock matrix and lead to instability in SCF for low-dimensional systems.
  DM is normalized wrt the number of electrons 12.0
    CPU time for vnuc pass1: analytic int    407.89 sec, wall time     13.13 sec
    CPU time for contracting Vnuc [0:216]     12.61 sec, wall time      0.41 sec
    CPU time for contracting Vnuc     12.62 sec, wall time      0.41 sec
    CPU time for get_nuc    420.58 sec, wall time     13.54 sec


******** <class 'pyscf.pbc.df.df.GDF'> ********
mesh = [7, 7, 7] (343 PWs)
auxbasis = None
eta = 0.2
exp_to_discard = None
_cderi_to_save = data/c_ccpcvtz_k2_C_1s_nvir_act30_cderi.h5
len(kpts) = 8
    kpts = [[ 0.          0.          0.        ]
 [ 0.46609268  0.46609268 -0.46609268]
 [ 0.46609268 -0.46609268  0.46609268]
 [ 0.93218535  0.          0.        ]
 [-0.46609268  0.46609268  0.46609268]
 [ 0.          0.93218535  0.        ]
 [ 0.          0.          0.93218535]
 [ 0.46609268  0.46609268  0.46609268]]
Even tempered Gaussians are generated as DF auxbasis for  C
  ETB auxbasis for C  [[0, [2105.344, 1]], [0, [1052.672, 1]], [0, [526.336, 1]], [0, [263.168, 1]], [0, [131.584, 1]], [0, [65.792, 1]], [0, [32.896, 1]], [0, [16.448, 1]], [0, [8.224, 1]], [0, [4.112, 1]], [0, [2.056, 1]], [0, [1.028, 1]], [0, [0.514, 1]], [0, [0.257, 1]], [1, [255.26699539423424, 1]], [1, [127.63349769711712, 1]], [1, [63.81674884855856, 1]], [1, [31.90837442427928, 1]], [1, [15.95418721213964, 1]], [1, [7.97709360606982, 1]], [1, [3.98854680303491, 1]], [1, [1.994273401517455, 1]], [1, [0.9971367007587275, 1]], [1, [0.49856835037936376, 1]], [1, [0.24928417518968188, 1]], [2, [247.6032, 1]], [2, [123.8016, 1]], [2, [61.9008, 1]], [2, [30.9504, 1]], [2, [15.4752, 1]], [2, [7.7376, 1]], [2, [3.8688, 1]], [2, [1.9344, 1]], [2, [0.9672, 1]], [2, [0.4836, 1]], [2, [0.2418, 1]], [3, [25.09785928719818, 1]], [3, [12.54892964359909, 1]], [3, [6.274464821799545, 1]], [3, [3.1372324108997725, 1]], [3, [1.5686162054498862, 1]], [3, [0.7843081027249431, 1]], [3, [0.39215405136247156, 1]], [4, [20.352, 1]], [4, [10.176, 1]], [4, [5.088, 1]], [4, [2.544, 1]], [4, [1.272, 1]], [4, [0.636, 1]]]
num shells = 98, num cGTOs = 410
Drop 0 primitive fitting functions
make aux basis, num shells = 98, num cGTOs = 410
auxcell.rcut 12.950571518732957
make compensating basis, num shells = 10, num cGTOs = 50
chgcell.rcut 11.482117703874595
    CPU time for 3c2e  23123.21 sec, wall time    775.38 sec
Num uniq kpts 14
uniq_kpts [[ 0.          0.          0.        ]
 [-0.46609268 -0.46609268  0.46609268]
 [-0.46609268  0.46609268 -0.46609268]
 [ 0.          0.93218535 -0.93218535]
 [-0.93218535  0.          0.        ]
 [ 0.46609268 -0.46609268 -0.46609268]
 [ 0.93218535  0.         -0.93218535]
 [ 0.93218535 -0.93218535  0.        ]
 [ 1.39827803 -0.46609268 -0.46609268]
 [ 0.         -0.93218535  0.        ]
 [ 0.46609268 -1.39827803  0.46609268]
 [ 0.          0.         -0.93218535]
 [ 0.46609268  0.46609268 -1.39827803]
 [-0.46609268 -0.46609268 -0.46609268]]
max_memory 698937.460736 (MB)  blocksize 37985731
Cholesky decomposition for j2c at kpt 0
Symmetry pattern (k - [0. 0. 0.])*a= 2n pi
    make_kpt for uniq_kptji_ids [0]
kpt = [0. 0. 0.]
adapted_ji_idx = [ 0  2  5  9 14 20 27 35]
memory = 1036.320768
int3c2e [1/1], AO [0:28], ncol = 3741
Symmetry pattern (k + [0. 0. 0.])*a= 2n pi
    make_kpt for [0]
Cholesky decomposition for j2c at kpt 1
Symmetry pattern (k - [-0.46609268 -0.46609268  0.46609268])*a= 2n pi
    make_kpt for uniq_kptji_ids [1]
kpt = [-0.46609268 -0.46609268  0.46609268]
adapted_ji_idx = [ 1  8 19 34]
memory = 1450.881024
int3c2e [1/1], AO [0:28], ncol = 7396
Symmetry pattern (k + [-0.46609268 -0.46609268  0.46609268])*a= 2n pi
    make_kpt for [1]
Cholesky decomposition for j2c at kpt 2
Symmetry pattern (k - [-0.46609268  0.46609268 -0.46609268])*a= 2n pi
    make_kpt for uniq_kptji_ids [2]
kpt = [-0.46609268  0.46609268 -0.46609268]
adapted_ji_idx = [ 3  7 25 33]
memory = 1590.849536
int3c2e [1/1], AO [0:28], ncol = 7396
Symmetry pattern (k + [-0.46609268  0.46609268 -0.46609268])*a= 2n pi
    make_kpt for [2]
Cholesky decomposition for j2c at kpt 3
Symmetry pattern (k - [ 0.          0.93218535 -0.93218535])*a= 2n pi
    make_kpt for uniq_kptji_ids [3 4]
kpt = [ 0.          0.93218535 -0.93218535]
adapted_ji_idx = [ 4 26]
memory = 1621.590016
int3c2e [1/1], AO [0:28], ncol = 7396
kpt = [-0.93218535  0.          0.        ]
adapted_ji_idx = [ 6 32]
memory = 1637.363712
int3c2e [1/1], AO [0:28], ncol = 7396
Symmetry pattern (k + [ 0.          0.93218535 -0.93218535])*a= 2n pi
    make_kpt for [3 4]
Cholesky decomposition for j2c at kpt 5
Symmetry pattern (k - [ 0.46609268 -0.46609268 -0.46609268])*a= 2n pi
    make_kpt for uniq_kptji_ids [5]
kpt = [ 0.46609268 -0.46609268 -0.46609268]
adapted_ji_idx = [10 16 23 31]
memory = 1651.617792
int3c2e [1/1], AO [0:28], ncol = 7396
Symmetry pattern (k + [ 0.46609268 -0.46609268 -0.46609268])*a= 2n pi
    make_kpt for [5]
Cholesky decomposition for j2c at kpt 6
Symmetry pattern (k - [ 0.93218535  0.         -0.93218535])*a= 2n pi
    make_kpt for uniq_kptji_ids [6 9]
kpt = [ 0.93218535  0.         -0.93218535]
adapted_ji_idx = [11 24]
memory = 1659.523072
int3c2e [1/1], AO [0:28], ncol = 7396
kpt = [ 0.         -0.93218535  0.        ]
adapted_ji_idx = [15 30]
memory = 1671.274496
int3c2e [1/1], AO [0:28], ncol = 7396
Symmetry pattern (k + [ 0.93218535  0.         -0.93218535])*a= 2n pi
    make_kpt for [6 9]
Cholesky decomposition for j2c at kpt 7
Symmetry pattern (k - [ 0.93218535 -0.93218535  0.        ])*a= 2n pi
    make_kpt for uniq_kptji_ids [ 7 11]
kpt = [ 0.93218535 -0.93218535  0.        ]
adapted_ji_idx = [12 18]
memory = 1679.167488
int3c2e [1/1], AO [0:28], ncol = 7396
kpt = [ 0.          0.         -0.93218535]
adapted_ji_idx = [21 29]
memory = 1681.371136
int3c2e [1/1], AO [0:28], ncol = 7396
Symmetry pattern (k + [ 0.93218535 -0.93218535  0.        ])*a= 2n pi
    make_kpt for [ 7 11]
Cholesky decomposition for j2c at kpt 8
Symmetry pattern (k - [ 1.39827803 -0.46609268 -0.46609268])*a= 2n pi
    make_kpt for uniq_kptji_ids [ 8 10 12 13]
kpt = [ 1.39827803 -0.46609268 -0.46609268]
adapted_ji_idx = [13]
memory = 1685.495808
int3c2e [1/1], AO [0:28], ncol = 7396
kpt = [ 0.46609268 -1.39827803  0.46609268]
adapted_ji_idx = [17]
memory = 1689.452544
int3c2e [1/1], AO [0:28], ncol = 7396
kpt = [ 0.46609268  0.46609268 -1.39827803]
adapted_ji_idx = [22]
memory = 1688.850432
int3c2e [1/1], AO [0:28], ncol = 7396
kpt = [-0.46609268 -0.46609268 -0.46609268]
adapted_ji_idx = [28]
memory = 1690.54208
int3c2e [1/1], AO [0:28], ncol = 7396
Symmetry pattern (k + [ 1.39827803 -0.46609268 -0.46609268])*a= 2n pi
    make_kpt for [ 8 10 12 13]
    CPU time for j3c  23735.52 sec, wall time    798.23 sec
    CPU time for Init get_k_kpts  23736.02 sec, wall time    798.25 sec
    CPU time for get_k_kpts: make_kpt ki>=kj (0,*)      5.94 sec, wall time      0.30 sec
    CPU time for get_k_kpts: make_kpt ki>=kj (1,*)      7.39 sec, wall time      0.23 sec
    CPU time for get_k_kpts: make_kpt ki>=kj (2,*)      9.78 sec, wall time      0.31 sec
    CPU time for get_k_kpts: make_kpt ki>=kj (3,*)     12.27 sec, wall time      0.39 sec
    CPU time for get_k_kpts: make_kpt ki>=kj (4,*)     15.95 sec, wall time      0.50 sec
    CPU time for get_k_kpts: make_kpt ki>=kj (5,*)     17.08 sec, wall time      0.54 sec
    CPU time for get_k_kpts: make_kpt ki>=kj (6,*)     19.91 sec, wall time      0.62 sec
    CPU time for get_k_kpts: make_kpt ki>=kj (7,*)     22.43 sec, wall time      0.70 sec
Monkhorst pack size [2 2 2] ew_eta 3.0566830812214194 ew_cut 2.30320412508748
Ewald components = 0, -1.72482326343322, 1.55476854344923
    CPU time for get_j pass 1      9.04 sec, wall time      0.31 sec
    CPU time for get_j pass 2      5.47 sec, wall time      0.21 sec
    CPU time for vj and vk  23864.63 sec, wall time    802.47 sec
Ewald components = 3.0606179073546e-132, -242.469443607053, 213.698400957796
E1 = (-51.75309269761474-1.6190865416152344e-20j)  E_coul = (3.412313228162324-2.318311422866159e-19j)
init E= -77.1118221187094
cond(S) = [3.69179249e+07 1.49232033e+07 1.49232033e+07 7.95844919e+08
 1.49232034e+07 7.95844946e+08 7.95844969e+08 1.49232033e+07]
    CPU time for initialize scf  24295.07 sec, wall time    816.43 sec
HOMO = 0.636638722371  LUMO = 0.825023589524
     k-point                  mo_energy
   0 ( 0.000  0.000  0.000)   [-10.61517441 -10.59889192  -1.74270837   0.63635137   0.63635137
   0.63663872] [ 0.90397975  0.90397975  0.90447459  1.15749711  1.47766355  1.78813925
  1.78813925  1.82402778  1.82402778  1.82405791  2.09149589  2.64846336
  2.64852969  2.64852969  3.39094457  3.39095583  3.39095583  3.56381378
  3.56381378  3.7687631   3.7687631   3.76876675  3.92952304  3.92955958
  3.92955958  4.59811891  4.5981437   4.59814376  4.66825256  4.93525206
  4.93525987  4.93525988  5.10200506  5.10200506  5.12362872  5.12362873
  5.12362956  5.15192366  5.33030173  5.33030173  5.42588782  5.42588783
  5.42591785  5.57413354  6.42791719  6.42794749  6.42794751  6.46505763
  6.46509554  6.46509555  7.3915964   8.41892193  8.41895041  8.41895124
 17.35995472 17.35998048 17.35998048 17.84986427 19.65955617 19.6595842
 19.6595843  19.8190994  42.27651661 42.27651661 42.32431354 42.32431354
 42.48274801 42.48276616 42.48276616 42.79656232 42.79658108 42.79658109
 82.66341682 82.66343013 82.66343013 84.39000885 84.39002218 84.39002219
 87.29881728 90.49316067]
   1 ( 0.000  0.000  0.500)   [-10.60272346 -10.59965075  -0.68439449  -0.38402185   0.48324403
   0.48329455] [ 0.97322372  1.04054539  1.04087413  1.36554088  1.63178522  1.7115243
  1.7852703   1.78530222  2.08678524  2.08684754  2.55517731  2.86612654
  2.86613773  2.94993696  3.0600999   3.06010534  3.0999714   3.10001551
  3.31124884  3.70916469  3.70919437  3.78027813  3.7802809   3.89474296
  3.95281613  4.11459047  4.25062969  4.25064466  4.42925921  4.86016502
  5.04730134  5.17700069  5.17702622  5.32140198  5.3877456   5.53546716
  5.53549502  5.66201703  5.67652324  5.67653425  5.6919305   5.69195181
  6.19053584  6.19054762  6.34582325  6.41429779  6.41430276  6.7242655
  6.72426658  7.25392552  7.32553779  7.57242691  7.57245557  9.10335036
 17.28722633 18.15724588 18.1572713  18.4349249  18.68544799 19.48528812
 19.48531402 22.96909936 42.32558124 42.32560265 42.38295127 42.38296323
 42.4308101  42.45589999 42.45864875 42.45865426 42.47825947 42.47826326
 82.64368883 83.2791733  83.27918534 83.65051135 84.23878513 84.23879678
 88.27696787 96.295705  ]
   2 (-0.000  0.500  0.000)   [-10.60272346 -10.59965075  -0.68439449  -0.38402185   0.48324403
   0.48329455] [ 0.97322372  1.04054539  1.04087413  1.36554088  1.63178522  1.7115243
  1.7852703   1.78530223  2.08678524  2.08684754  2.55517729  2.86612654
  2.86613773  2.94993696  3.06009987  3.06010537  3.0999714   3.10001551
  3.31124867  3.70916469  3.70919437  3.78027813  3.7802809   3.89474296
  3.9528161   4.11459045  4.25062968  4.25064467  4.42925916  4.86016502
  5.04730133  5.17700069  5.17702622  5.32140191  5.38774559  5.53546714
  5.53549506  5.66201691  5.67652323  5.67653426  5.6919305   5.69195181
  6.1905358   6.19054767  6.34582297  6.41429779  6.41430276  6.72426551
  6.72426658  7.25392535  7.32553764  7.57242688  7.57245561  9.10335002
 17.28722633 18.15724589 18.1572713  18.4349249  18.68544799 19.4852881
 19.48531405 22.96909918 42.32558124 42.32560265 42.38295127 42.38296323
 42.43081009 42.45589999 42.45864875 42.45865426 42.47825947 42.47826326
 82.64368883 83.2791733  83.27918534 83.65051135 84.23878513 84.23879678
 88.27696787 96.29570494]
   3 ( 0.000  0.500  0.500)   [-10.60021574 -10.60018759  -0.33898993  -0.33791945   0.26973245
   0.26976303] [ 0.82502359  0.82508916  1.43862817  1.43871505  1.69551036  1.69554875
  2.02923379  2.02928016  2.25526607  2.25527851  2.66692025  2.66693247
  2.68795592  2.68797007  2.71506053  2.71506257  2.8253992   2.82542213
  3.54858159  3.54859921  3.77693589  3.77693605  3.85532646  3.85534126
  4.49509054  4.49510154  4.50593464  4.50595213  4.51932044  4.5193256
  4.66355768  4.66358461  4.98020088  4.98020632  5.04871556  5.04872049
  5.52654853  5.52657169  5.67067254  5.67069871  6.07235123  6.07236139
  6.13274045  6.1327562   6.19635384  6.19636791  6.33476236  6.33478793
  7.02648328  7.02649895  7.39287814  7.39288516  8.27254878  8.27256505
 17.3997095  17.39972705 18.15847786 18.15848098 18.17699442 18.17701669
 19.82108342 19.82108501 42.28144454 42.28144456 42.31637506 42.31638001
 42.43857269 42.43858445 42.46314685 42.46315898 42.63645428 42.63645975
 82.68619173 82.68620065 83.27060638 83.27060642 83.28654842 83.28655728
 90.53951041 90.53951092]
   4 ( 0.500 -0.000 -0.000)   [-10.60272346 -10.59965075  -0.68439449  -0.38402185   0.48324403
   0.48329455] [ 0.97322372  1.04054539  1.04087413  1.36554088  1.63178522  1.7115243
  1.7852703   1.78530223  2.08678524  2.08684754  2.55517731  2.86612654
  2.86613773  2.94993696  3.06009991  3.06010538  3.0999714   3.10001551
  3.31124886  3.70916469  3.70919436  3.78027813  3.7802809   3.89474296
  3.95281604  4.11459042  4.25062969  4.25064467  4.42925922  4.86016502
  5.04730134  5.17700069  5.17702622  5.32140198  5.38774557  5.53546718
  5.53549507  5.66201674  5.67652324  5.67653426  5.6919305   5.6919518
  6.19053585  6.19054769  6.34582328  6.41429779  6.41430276  6.7242655
  6.72426657  7.25392555  7.32553741  7.57242693  7.57245561  9.10334952
 17.28722633 18.15724588 18.1572713  18.4349249  18.68544799 19.48528813
 19.48531405 22.96909894 42.32558124 42.32560265 42.38295127 42.38296323
 42.4308101  42.45589999 42.45864875 42.45865426 42.47825947 42.47826326
 82.64368883 83.2791733  83.27918534 83.65051135 84.23878514 84.23879678
 88.27696787 96.29570489]
   5 ( 0.500  0.000  0.500)   [-10.60021574 -10.60018759  -0.33898993  -0.33791945   0.26973245
   0.26976303] [ 0.82502359  0.82508916  1.43862817  1.43871505  1.69551036  1.69554875
  2.02923379  2.02928016  2.25526607  2.25527851  2.66692025  2.66693247
  2.68795592  2.68797007  2.71506042  2.71506244  2.8253992   2.82542213
  3.54858117  3.54859881  3.77693588  3.77693605  3.85532646  3.85534126
  4.49509054  4.49510154  4.50591915  4.50593252  4.51932044  4.5193256
  4.66355768  4.6635846   4.98020088  4.98020632  5.04871556  5.04872049
  5.52654778  5.52657096  5.67067254  5.67069871  6.07235123  6.07236139
  6.13272893  6.13274306  6.19635384  6.19636791  6.33476236  6.33478793
  7.02648073  7.02649639  7.3928781   7.39288511  8.27254851  8.27256483
 17.3997095  17.39972705 18.15847785 18.15848097 18.17699424 18.1770165
 19.82108342 19.82108501 42.28144454 42.28144456 42.31637506 42.31638001
 42.43857265 42.43858441 42.46314685 42.46315898 42.63645427 42.63645975
 82.68619173 82.68620065 83.27060638 83.27060641 83.2865484  83.28655725
 90.53951041 90.53951092]
   6 ( 0.500  0.500  0.000)   [-10.60021574 -10.60018759  -0.33898993  -0.33791945   0.26973245
   0.26976303] [ 0.82502359  0.82508916  1.43862817  1.43871505  1.69551036  1.69554875
  2.02923379  2.02928016  2.25526607  2.25527851  2.66692025  2.66693247
  2.68795592  2.68797007  2.71506053  2.71506255  2.8253992   2.82542213
  3.54858155  3.5485992   3.77693588  3.77693605  3.85532646  3.85534126
  4.49509054  4.49510154  4.50593779  4.50594671  4.51932044  4.5193256
  4.66355768  4.6635846   4.98020088  4.98020632  5.04871556  5.04872049
  5.52654846  5.52657166  5.67067254  5.67069871  6.07235123  6.07236139
  6.13274115  6.13275396  6.19635384  6.19636791  6.33476236  6.33478793
  7.02648308  7.02649878  7.3928781   7.39288511  8.27254855  8.27256485
 17.3997095  17.39972705 18.15847785 18.15848097 18.17699442 18.17701669
 19.82108342 19.82108501 42.28144454 42.28144456 42.31637506 42.31638001
 42.43857269 42.43858445 42.46314685 42.46315898 42.63645427 42.63645975
 82.68619173 82.68620065 83.27060638 83.27060641 83.28654842 83.28655728
 90.53951041 90.53951092]
   7 ( 0.500  0.500  0.500)   [-10.60270125 -10.59972287  -0.68210262  -0.38068272   0.48330274
   0.48330274] [ 0.97325816  1.04060257  1.04060257  1.36538019  1.63185353  1.71151324
  1.78532357  1.78532357  2.08677258  2.08677258  2.55519095  2.86615981
  2.86615981  2.94998151  3.06011252  3.06011258  3.10000988  3.10000988
  3.31126337  3.70917724  3.70917725  3.78028579  3.78028579  3.89474914
  3.95279865  4.11456257  4.25063492  4.25063495  4.4292413   4.8601819
  5.0473094   5.17703025  5.17703026  5.32138644  5.38771834  5.53549398
  5.53549407  5.66200994  5.67652639  5.6765264   5.6919299   5.69192991
  6.19052942  6.19052954  6.3458235   6.41430583  6.41430583  6.72426487
  6.7242649   7.25387914  7.32554698  7.57246132  7.57246142  9.10335191
 17.28720279 18.15727125 18.15727126 18.43492493 18.68542119 19.48531264
 19.48531269 22.96909887 42.32558972 42.32558972 42.38296836 42.38296836
 42.43079516 42.45588453 42.45866165 42.45866165 42.47825807 42.47825807
 82.64367744 83.27918529 83.27918529 83.65049972 84.23879664 84.23879665
 88.27696784 96.29570438]
    CPU time for get_k_kpts: make_kpt ki>=kj (0,*)      2.14 sec, wall time      0.07 sec
    CPU time for get_k_kpts: make_kpt ki>=kj (1,*)      6.38 sec, wall time      0.20 sec
    CPU time for get_k_kpts: make_kpt ki>=kj (2,*)     10.09 sec, wall time      0.32 sec
    CPU time for get_k_kpts: make_kpt ki>=kj (3,*)     12.18 sec, wall time      0.39 sec
    CPU time for get_k_kpts: make_kpt ki>=kj (4,*)     14.97 sec, wall time      0.47 sec
    CPU time for get_k_kpts: make_kpt ki>=kj (5,*)     15.44 sec, wall time      0.49 sec
    CPU time for get_k_kpts: make_kpt ki>=kj (6,*)     17.92 sec, wall time      0.56 sec
    CPU time for get_k_kpts: make_kpt ki>=kj (7,*)     20.63 sec, wall time      0.65 sec
Monkhorst pack size [2 2 2] ew_eta 3.0566830812214194 ew_cut 2.30320412508748
Ewald components = 0, -1.72482326343322, 1.55476854344923
    CPU time for get_j pass 1      7.96 sec, wall time      0.27 sec
    CPU time for get_j pass 2      5.49 sec, wall time      0.20 sec
    CPU time for vj and vk    115.86 sec, wall time      3.70 sec
Ewald components = 3.0606179073546e-132, -242.469443607053, 213.698400957796
E1 = (-51.27501614810342-4.625751196991322e-19j)  E_coul = (4.352137546416918-8.464197505970471e-20j)
cycle= 1 E= -75.6939212509434  delta_E= 1.42  |g|= 0.641  |ddm|= 13.3
    CPU time for cycle= 1    119.04 sec, wall time      3.80 sec
diis-norm(errvec)=2.48079
diis-c [-6.15434309+0.j  1.        +0.j]
HOMO = 0.346969530627  LUMO = 0.915182305959
     k-point                  mo_energy
   0 ( 0.000  0.000  0.000)   [-10.55854046 -10.55600396  -0.66991733   0.34696854   0.34696854
   0.34696953] [ 0.98425272  0.98425327  0.98425327  1.32812527  1.49531099  1.77943119
  1.77943119  1.82173561  1.82173562  1.82175062  2.07949105  2.6646042
  2.66460776  2.66460776  3.40526347  3.40527678  3.40527678  3.57830157
  3.57830157  3.78526553  3.78526553  3.78529166  3.94537177  3.94537755
  3.94537756  4.60480172  4.60480407  4.60480413  4.69681134  4.95081316
  4.95081317  4.95083775  5.11762073  5.11762073  5.13247586  5.13247748
  5.13247748  5.18282548  5.34983934  5.34983934  5.44066374  5.44066374
  5.44066797  5.58233425  6.45324886  6.45327358  6.4532736   6.47653311
  6.47653934  6.47653936  7.42543572  8.44206019  8.44206621  8.44206706
 17.39406731 17.39408331 17.39408331 17.88621199 19.69139643 19.69141103
 19.69141114 19.85321495 42.30424767 42.30424767 42.35214066 42.35214066
 42.51047762 42.51048445 42.51048445 42.82459523 42.82460241 42.82460242
 82.66641017 82.66641636 82.66641636 84.39286078 84.39286688 84.39286689
 87.29426554 90.4881287 ]
   1 ( 0.000  0.000  0.500)   [-10.5580676  -10.55679843  -0.39831196  -0.24709449   0.22828576
   0.22828996] [ 1.09863143  1.09864943  1.10293638  1.39420743  1.64390436  1.75710531
  1.79378686  1.79379707  2.0782968   2.07829988  2.54824903  2.8727177
  2.87272359  2.97129818  3.05461204  3.05462868  3.11402248  3.11403814
  3.29542663  3.71808242  3.71808417  3.80376689  3.80376922  3.91248163
  3.95874949  4.12168627  4.25860087  4.25860615  4.4676085   4.87101651
  5.06052658  5.19327498  5.19329282  5.34248068  5.40744104  5.558321
  5.55833143  5.67078385  5.69971717  5.69972769  5.71580087  5.71582298
  6.20942942  6.20944254  6.3617499   6.42409753  6.42410712  6.73915072
  6.73916822  7.28196933  7.34932712  7.5939529   7.59396809  9.1282328
 17.31829796 18.19032533 18.19033819 18.47082014 18.71656757 19.51582799
 19.51583576 23.00053492 42.3533383  42.35334582 42.41100935 42.41101369
 42.4589097  42.48380264 42.48640724 42.48640914 42.5060232  42.50602454
 82.64630438 83.28206802 83.28207342 83.653207   84.2414713  84.241476
 88.27228509 96.28927659]
   2 (-0.000  0.500  0.000)   [-10.5580676  -10.55679843  -0.39831196  -0.24709449   0.22828576
   0.22828996] [ 1.09863143  1.09864943  1.10293638  1.39420743  1.64390436  1.75710531
  1.79378686  1.79379707  2.0782968   2.07829988  2.54824901  2.8727177
  2.87272359  2.97129818  3.05461207  3.05462866  3.11402248  3.11403814
  3.29542647  3.71808242  3.71808416  3.80376689  3.80376922  3.91248163
  3.95874944  4.12168625  4.25860088  4.25860614  4.46760844  4.87101651
  5.06052657  5.19327498  5.19329282  5.34248062  5.40744103  5.55832097
  5.55833147  5.67078374  5.69971717  5.6997277   5.71580087  5.71582298
  6.20942939  6.20944259  6.36174965  6.42409753  6.42410712  6.73915071
  6.73916823  7.28196918  7.34932697  7.59395288  7.59396813  9.12823246
 17.31829796 18.19032533 18.19033819 18.47082014 18.71656757 19.51582797
 19.51583579 23.00053474 42.3533383  42.35334582 42.41100935 42.41101369
 42.4589097  42.48380264 42.48640724 42.48640914 42.5060232  42.50602454
 82.64630438 83.28206802 83.28207342 83.653207   84.24147129 84.24147601
 88.27228509 96.28927652]
   3 ( 0.000  0.500  0.500)   [-10.55748618 -10.55748611  -0.24576568  -0.24575482   0.07539637
   0.0753977 ] [ 0.91518231  0.9152028   1.50163202  1.5016325   1.72978365  1.72979351
  2.01037682  2.01037792  2.25172309  2.25173622  2.66939692  2.66939999
  2.67534407  2.67534427  2.70886032  2.70887619  2.83646411  2.83646813
  3.56782716  3.56786344  3.79921706  3.79924232  3.87266434  3.8726674
  4.48142885  4.48144612  4.50411863  4.50411894  4.52723327  4.52724202
  4.68597133  4.6860031   4.99752312  4.99753358  5.07183626  5.07184486
  5.55431729  5.55432014  5.6936009   5.69360602  6.090845    6.090859
  6.15119101  6.15120264  6.20829623  6.20830389  6.35667339  6.35667555
  7.04921431  7.04922545  7.41923297  7.41923391  8.28999218  8.28999517
 17.43365949 17.4336695  18.19003624 18.19004119 18.20730165 18.20730729
 19.85508709 19.85508884 42.30921459 42.30921459 42.34412311 42.34412501
 42.46672281 42.46672693 42.49098805 42.4909926  42.66422549 42.66422755
 82.68915234 82.68915639 83.2732867  83.27328672 83.28913764 83.28914117
 90.53434641 90.53434689]
   4 ( 0.500 -0.000 -0.000)   [-10.5580676  -10.55679843  -0.39831196  -0.24709449   0.22828576
   0.22828996] [ 1.09863143  1.09864943  1.10293638  1.39420743  1.64390436  1.75710531
  1.79378686  1.79379707  2.0782968   2.07829988  2.54824903  2.8727177
  2.87272359  2.97129818  3.05461208  3.0546287   3.11402248  3.11403814
  3.29542667  3.71808242  3.71808416  3.80376689  3.80376922  3.91248163
  3.95874938  4.12168622  4.25860088  4.25860615  4.46760851  4.87101651
  5.06052658  5.19327498  5.19329282  5.3424807   5.407441    5.55832102
  5.55833148  5.67078356  5.69971717  5.6997277   5.71580087  5.71582298
  6.20942945  6.2094426   6.36174998  6.42409754  6.42410712  6.73915071
  6.73916822  7.28196939  7.34932671  7.59395293  7.59396813  9.12823196
 17.31829795 18.19032533 18.19033819 18.47082014 18.71656757 19.515828
 19.51583579 23.00053449 42.3533383  42.35334582 42.41100935 42.41101369
 42.4589097  42.48380264 42.48640724 42.48640914 42.5060232  42.50602454
 82.64630438 83.28206802 83.28207342 83.653207   84.2414713  84.24147601
 88.27228509 96.28927647]
   5 ( 0.500  0.000  0.500)   [-10.55748618 -10.55748611  -0.24576568  -0.24575482   0.07539637
   0.0753977 ] [ 0.91518231  0.9152028   1.50163202  1.5016325   1.72978365  1.72979351
  2.01037682  2.01037792  2.25172309  2.25173622  2.66939692  2.66939999
  2.67534407  2.67534427  2.70886017  2.70887604  2.83646411  2.83646813
  3.5678267   3.56786298  3.79921706  3.79924232  3.87266434  3.8726674
  4.48141164  4.48142506  4.50411863  4.50411894  4.52723326  4.52724202
  4.68597133  4.6860031   4.99752312  4.99753358  5.07183626  5.07184486
  5.55431652  5.55431933  5.69360091  5.69360602  6.09084499  6.09085901
  6.15117926  6.15118833  6.20829623  6.20830389  6.35667339  6.35667555
  7.04921177  7.0492228   7.41923293  7.41923386  8.28999193  8.28999498
 17.43365949 17.4336695  18.19003623 18.19004118 18.20730146 18.20730708
 19.85508709 19.85508884 42.30921459 42.30921459 42.34412311 42.34412501
 42.46672278 42.46672688 42.49098805 42.4909926  42.66422549 42.66422755
 82.68915234 82.68915639 83.2732867  83.27328672 83.28913762 83.28914114
 90.53434641 90.53434689]
   6 ( 0.500  0.500  0.000)   [-10.55748618 -10.55748611  -0.24576568  -0.24575482   0.07539637
   0.0753977 ] [ 0.91518231  0.9152028   1.50163202  1.5016325   1.72978365  1.72979351
  2.01037682  2.01037792  2.25172309  2.25173622  2.66939692  2.66939999
  2.67534407  2.67534427  2.70886031  2.70887617  2.83646411  2.83646813
  3.5678271   3.56786341  3.79921706  3.79924232  3.87266434  3.8726674
  4.4814301   4.48144093  4.50411863  4.50411894  4.52723326  4.52724202
  4.68597133  4.6860031   4.99752312  4.99753358  5.07183626  5.07184486
  5.55431725  5.55432001  5.69360091  5.69360602  6.09084499  6.09085901
  6.15119148  6.15119953  6.20829623  6.20830389  6.35667339  6.35667555
  7.04921403  7.04922515  7.41923293  7.41923387  8.28999196  8.28999499
 17.43365949 17.4336695  18.19003623 18.19004118 18.20730164 18.20730727
 19.85508709 19.85508884 42.30921459 42.30921459 42.34412311 42.34412501
 42.46672281 42.46672692 42.49098805 42.4909926  42.66422549 42.66422755
 82.68915234 82.68915639 83.2732867  83.27328672 83.28913764 83.28914117
 90.53434641 90.53434689]
   7 ( 0.500  0.500  0.500)   [-10.55806766 -10.55679837  -0.39830096  -0.24711233   0.22828646
   0.22828646] [ 1.09865424  1.09865424  1.10295376  1.39420809  1.6439145   1.75708223
  1.79377667  1.79377667  2.07828007  2.07828007  2.54826297  2.87272206
  2.87272206  2.97128284  3.05462533  3.0546254   3.11405174  3.11405174
  3.2954408   3.71807765  3.71807765  3.80378266  3.80378266  3.91250786
  3.95875401  4.12166413  4.25858152  4.25858155  4.46761735  4.87101331
  5.06053066  5.19329497  5.19329497  5.34248982  5.4074338   5.55833411
  5.55833419  5.6707704   5.69971188  5.69971189  5.71579399  5.715794
  6.20943536  6.20943547  6.36175132  6.42409946  6.42409947  6.73915131
  6.73915134  7.28193758  7.34932838  7.59397651  7.5939766   9.1282413
 17.31828599 18.19033614 18.19033615 18.47082074 18.71656297 19.5158365
 19.51583655 23.00053876 42.35334129 42.35334129 42.41101564 42.41101564
 42.45890423 42.48379732 42.48641174 42.48641174 42.50602272 42.50602272
 82.64629943 83.28207318 83.28207318 83.65320243 84.24147608 84.24147609
 88.27228522 96.28927692]
    CPU time for get_k_kpts: make_kpt ki>=kj (0,*)      2.72 sec, wall time      0.09 sec
    CPU time for get_k_kpts: make_kpt ki>=kj (1,*)      6.98 sec, wall time      0.22 sec
    CPU time for get_k_kpts: make_kpt ki>=kj (2,*)      9.32 sec, wall time      0.29 sec
    CPU time for get_k_kpts: make_kpt ki>=kj (3,*)     12.16 sec, wall time      0.38 sec
    CPU time for get_k_kpts: make_kpt ki>=kj (4,*)     14.42 sec, wall time      0.45 sec
    CPU time for get_k_kpts: make_kpt ki>=kj (5,*)     15.63 sec, wall time      0.49 sec
    CPU time for get_k_kpts: make_kpt ki>=kj (6,*)     19.71 sec, wall time      0.62 sec
    CPU time for get_k_kpts: make_kpt ki>=kj (7,*)     22.33 sec, wall time      0.70 sec
Monkhorst pack size [2 2 2] ew_eta 3.0566830812214194 ew_cut 2.30320412508748
Ewald components = 0, -1.72482326343322, 1.55476854344923
    CPU time for get_j pass 1      9.89 sec, wall time      0.32 sec
    CPU time for get_j pass 2      5.95 sec, wall time      0.22 sec
    CPU time for vj and vk    122.60 sec, wall time      3.89 sec
Ewald components = 3.0606179073546e-132, -242.469443607053, 213.698400957796
E1 = (-51.30875746298369-4.415947532349135e-19j)  E_coul = (4.372957140600333-1.0329340401407762e-19j)
cycle= 2 E= -75.7068429716403  delta_E= -0.0129  |g|= 0.137  |ddm|= 2.16
    CPU time for cycle= 2    126.23 sec, wall time      4.01 sec
diis-norm(errvec)=0.50696
diis-c [-0.02432247-5.73971851e-42j -0.24197227-5.08162092e-27j
  1.24197227+5.08162092e-27j]
HOMO = 0.344400919413  LUMO = 0.919825337911
     k-point                  mo_energy
   0 ( 0.000  0.000  0.000)   [-10.55395517 -10.55138204  -0.66458255   0.34439444   0.34439444
   0.34440092] [ 0.9893552   0.98935758  0.98935758  1.34093509  1.49645248  1.7800346
  1.7800346   1.821154    1.821158    1.821158    2.07783239  2.66523863
  2.66523863  2.66524129  3.40690898  3.40690898  3.40691008  3.58019735
  3.58019735  3.78765612  3.7876612   3.7876612   3.94703661  3.94703661
  3.94703893  4.60563178  4.60563185  4.6056327   4.70046257  4.95268093
  4.95268557  4.95268558  5.11976944  5.11976944  5.13385183  5.13385258
  5.13385258  5.18680127  5.35219114  5.35219114  5.44237244  5.44237291
  5.44237291  5.58325713  6.45634514  6.45634516  6.45634936  6.47785806
  6.47785808  6.4778597   7.42968836  8.44470263  8.44470345  8.4447045
 17.39922324 17.39922324 17.39922544 17.89143701 19.69620323 19.69620334
 19.69620512 19.8581033  42.30892758 42.30892758 42.35683142 42.35683142
 42.51516514 42.51516514 42.51516589 42.82932162 42.82932164 42.82932242
 82.66901882 82.66901882 82.66901939 84.39543132 84.39543133 84.39543186
 87.29597402 90.48978538]
   1 ( 0.000  0.000  0.500)   [-10.55344568 -10.5521617   -0.3936659   -0.24609779   0.22650055
   0.22650529] [ 1.10256841  1.10257347  1.11198788  1.3954267   1.64552203  1.76154938
  1.79468566  1.79468935  2.07835557  2.07835689  2.54755053  2.87370705
  2.87370838  2.97415992  3.0543189   3.05432283  3.11544773  3.11545171
  3.29351957  3.71921544  3.71921595  3.80671517  3.80671553  3.91507781
  3.95911302  4.12268867  4.25969538  4.25969712  4.47225952  4.87226688
  5.06208282  5.19526662  5.19527046  5.34501049  5.4097286   5.56104754
  5.56104952  5.67189469  5.70253289  5.7025349   5.71878806  5.71879211
  6.21173283  6.21173552  6.36371557  6.42529589  6.4252973   6.74087665
  6.74088009  7.28547813  7.35209641  7.59656309  7.59656609  9.13141984
 17.32302856 18.19533937 18.19534112 18.47599724 18.72125379 19.52044507
 19.52044601 23.00516825 42.35802338 42.35802406 42.41573807 42.41573847
 42.46363789 42.48850508 42.49109311 42.49109323 42.51070761 42.51070773
 82.64885799 83.28465452 83.28465502 83.65575422 84.24401697 84.24401737
 88.27398572 96.29078174]
   2 (-0.000  0.500  0.000)   [-10.55344568 -10.5521617   -0.3936659   -0.24609779   0.22650055
   0.22650529] [ 1.10256841  1.10257347  1.11198788  1.3954267   1.64552203  1.76154938
  1.79468566  1.79468935  2.07835557  2.07835689  2.54755052  2.87370705
  2.87370838  2.97415992  3.05431888  3.05432286  3.11544773  3.11545171
  3.29351941  3.71921543  3.71921596  3.80671517  3.80671553  3.91507781
  3.95911297  4.12268865  4.25969537  4.25969714  4.47225947  4.87226688
  5.06208282  5.19526661  5.19527046  5.34501042  5.40972859  5.56104758
  5.5610495   5.67189458  5.7025329   5.7025349   5.71878806  5.71879211
  6.21173288  6.21173548  6.36371532  6.42529589  6.4252973   6.74087665
  6.74088008  7.28547798  7.35209626  7.59656314  7.59656606  9.13141949
 17.32302856 18.19533937 18.19534112 18.47599723 18.72125379 19.5204451
 19.520446   23.00516807 42.35802338 42.35802406 42.41573807 42.41573847
 42.46363789 42.48850508 42.49109311 42.49109323 42.51070761 42.51070773
 82.64885799 83.28465452 83.28465502 83.65575422 84.24401698 84.24401737
 88.27398572 96.29078168]
   3 ( 0.000  0.500  0.500)   [-10.55284819 -10.55284816  -0.2428253   -0.24282006   0.07393098
   0.07393286] [ 0.91982534  0.91982979  1.50726919  1.50726971  1.73331618  1.7333193
  2.00882607  2.00882625  2.25263275  2.25263587  2.67020774  2.67020838
  2.67388678  2.67388734  2.70811866  2.70812152  2.83820114  2.83820248
  3.57015445  3.57016167  3.80183866  3.80184305  3.87451417  3.87451529
  4.47845563  4.47847193  4.50529083  4.50529084  4.52843353  4.52843534
  4.68872555  4.68873096  4.99968415  4.99968637  5.07472101  5.0747228
  5.55751653  5.55751764  5.696394    5.69639451  6.09325108  6.09325345
  6.15338201  6.15339273  6.20963427  6.20963538  6.35925442  6.35925498
  7.0520792   7.05208177  7.42252266  7.4225231   8.29207419  8.29207472
 17.43878653 17.43878788 18.19483285 18.19483384 18.21189911 18.21189978
 19.86000063 19.86000112 42.31389909 42.3138991  42.34880516 42.34880536
 42.471461   42.47146132 42.49568685 42.49568734 42.66891389 42.66891407
 82.69175337 82.69175374 83.27584301 83.27584303 83.29168033 83.29168062
 90.53599326 90.53599337]
   4 ( 0.500 -0.000 -0.000)   [-10.55344568 -10.5521617   -0.3936659   -0.24609779   0.22650055
   0.22650529] [ 1.10256841  1.10257347  1.11198788  1.3954267   1.64552203  1.76154938
  1.79468566  1.79468935  2.07835557  2.07835689  2.54755053  2.87370705
  2.87370838  2.97415991  3.05431892  3.05432286  3.11544773  3.11545171
  3.29351962  3.71921543  3.71921596  3.80671517  3.80671553  3.91507781
  3.95911291  4.12268862  4.25969539  4.25969714  4.47225954  4.87226688
  5.06208283  5.19526661  5.19527046  5.3450105   5.40972856  5.56104758
  5.56104954  5.6718944   5.7025329   5.7025349   5.71878806  5.71879211
  6.21173289  6.21173554  6.36371565  6.42529589  6.4252973   6.74087665
  6.74088007  7.28547819  7.352096    7.59656314  7.59656612  9.13141899
 17.32302856 18.19533937 18.19534112 18.47599724 18.72125379 19.5204451
 19.52044602 23.00516783 42.35802338 42.35802406 42.41573807 42.41573847
 42.46363789 42.48850508 42.49109311 42.49109323 42.51070761 42.51070773
 82.64885799 83.28465452 83.28465502 83.65575422 84.24401698 84.24401737
 88.27398572 96.29078163]
   5 ( 0.500  0.000  0.500)   [-10.55284819 -10.55284816  -0.2428253   -0.24282006   0.07393098
   0.07393286] [ 0.91982534  0.91982979  1.50726919  1.50726971  1.73331618  1.7333193
  2.00882607  2.00882625  2.25263275  2.25263587  2.67020774  2.67020838
  2.67388677  2.67388734  2.7081185   2.70812137  2.83820114  2.83820248
  3.57015398  3.5701612   3.80183866  3.80184305  3.87451417  3.87451529
  4.47843821  4.47845048  4.50529084  4.50529084  4.52843353  4.52843534
  4.68872555  4.68873096  4.99968415  4.99968637  5.07472101  5.07472281
  5.55751577  5.55751678  5.696394    5.69639451  6.09325108  6.09325345
  6.15337023  6.15337813  6.20963427  6.20963537  6.35925441  6.35925498
  7.0520768   7.05207895  7.42252261  7.42252306  8.29207401  8.29207447
 17.43878653 17.43878788 18.19483284 18.19483383 18.2118989  18.21189959
 19.86000063 19.86000112 42.31389909 42.3138991  42.34880516 42.34880536
 42.47146095 42.47146128 42.49568685 42.49568734 42.66891389 42.66891407
 82.69175337 82.69175374 83.27584301 83.27584303 83.2916803  83.2916806
 90.53599326 90.53599337]
   6 ( 0.500  0.500  0.000)   [-10.55284819 -10.55284816  -0.2428253   -0.24282006   0.07393098
   0.07393286] [ 0.91982534  0.91982979  1.50726919  1.50726971  1.73331618  1.7333193
  2.00882607  2.00882625  2.25263275  2.25263587  2.67020774  2.67020838
  2.67388678  2.67388734  2.70811864  2.70812151  2.83820114  2.83820248
  3.57015442  3.57016161  3.80183866  3.80184305  3.87451417  3.87451529
  4.47845618  4.4784671   4.50529084  4.50529084  4.52843353  4.52843534
  4.68872555  4.68873096  4.99968415  4.99968637  5.07472101  5.07472281
  5.55751648  5.5575175   5.696394    5.69639451  6.09325108  6.09325345
  6.15338254  6.15338934  6.20963427  6.20963538  6.35925441  6.35925498
  7.05207926  7.05208109  7.42252261  7.42252306  8.29207399  8.29207453
 17.43878653 17.43878788 18.19483284 18.19483383 18.2118991  18.21189976
 19.86000063 19.86000112 42.31389909 42.3138991  42.34880516 42.34880536
 42.47146099 42.47146132 42.49568685 42.49568734 42.66891389 42.66891407
 82.69175337 82.69175374 83.27584301 83.27584303 83.29168032 83.29168063
 90.53599326 90.53599337]
   7 ( 0.500  0.500  0.500)   [-10.55344571 -10.55216167  -0.3936698   -0.24609042   0.22650182
   0.22650182] [ 1.10256887  1.10256887  1.11198636  1.39542465  1.64552065  1.76155501
  1.79468851  1.79468851  2.07836015  2.07836015  2.54754823  2.87370808
  2.87370808  2.97416287  3.0543206   3.05432066  3.11544517  3.11544517
  3.29351739  3.71921599  3.719216    3.80671276  3.80671276  3.9150727
  3.95911205  4.12269359  4.25970057  4.2597006   4.47225793  4.87226778
  5.06208153  5.19526636  5.19526636  5.34500853  5.40972927  5.56104657
  5.56104665  5.67189625  5.70253628  5.70253629  5.71879347  5.71879349
  6.21173404  6.21173415  6.36371597  6.42529697  6.42529698  6.74088016
  6.74088019  7.28548368  7.35209563  7.59656162  7.59656171  9.13141785
 17.32303038 18.19533975 18.19533976 18.47599717 18.72125417 19.52044492
 19.52044497 23.00516706 42.35802377 42.35802377 42.41573788 42.41573788
 42.46363836 42.48850556 42.49109286 42.49109286 42.51070776 42.51070777
 82.64885842 83.28465456 83.28465456 83.6557546  84.24401696 84.24401697
 88.27398566 96.29078153]
    CPU time for get_k_kpts: make_kpt ki>=kj (0,*)      2.05 sec, wall time      0.06 sec
    CPU time for get_k_kpts: make_kpt ki>=kj (1,*)      6.54 sec, wall time      0.20 sec
    CPU time for get_k_kpts: make_kpt ki>=kj (2,*)      9.66 sec, wall time      0.30 sec
    CPU time for get_k_kpts: make_kpt ki>=kj (3,*)     12.00 sec, wall time      0.38 sec
    CPU time for get_k_kpts: make_kpt ki>=kj (4,*)     12.84 sec, wall time      0.40 sec
    CPU time for get_k_kpts: make_kpt ki>=kj (5,*)     15.33 sec, wall time      0.48 sec
    CPU time for get_k_kpts: make_kpt ki>=kj (6,*)     17.80 sec, wall time      0.56 sec
    CPU time for get_k_kpts: make_kpt ki>=kj (7,*)     20.57 sec, wall time      0.64 sec
Monkhorst pack size [2 2 2] ew_eta 3.0566830812214194 ew_cut 2.30320412508748
Ewald components = 0, -1.72482326343322, 1.55476854344923
    CPU time for get_j pass 1     10.65 sec, wall time      0.34 sec
    CPU time for get_j pass 2      6.20 sec, wall time      0.22 sec
    CPU time for vj and vk    117.04 sec, wall time      3.70 sec
Ewald components = 3.0606179073546e-132, -242.469443607053, 213.698400957796
E1 = (-51.30788468287599-4.2614853964697794e-19j)  E_coul = (4.371415957891654-1.0794834078199507e-19j)
cycle= 3 E= -75.7075113742413  delta_E= -0.000668  |g|= 0.00806  |ddm|= 0.689
    CPU time for cycle= 3    120.46 sec, wall time      3.81 sec
diis-norm(errvec)=0.0409639
diis-c [-4.28467711e-04+0.00000000e+00j  6.44765585e-02+4.99423669e-27j
 -3.51650152e-01-1.95393199e-26j  1.28717359e+00+1.45450832e-26j]
HOMO = 0.343971904904  LUMO = 0.919786043791
     k-point                  mo_energy
   0 ( 0.000  0.000  0.000)   [-10.55557791 -10.55300656  -0.66451646   0.34397001   0.3439719
   0.3439719 ] [ 0.98921846  0.98921846  0.98921852  1.34110893  1.49654328  1.77989285
  1.77989285  1.82120637  1.82120637  1.82120747  2.0780456   2.6648447
  2.66484556  2.66484556  3.40667652  3.40667686  3.40667686  3.58006556
  3.58006556  3.78749242  3.78749243  3.78749379  3.94659192  3.94659236
  3.94659236  4.60551438  4.6055145   4.60551456  4.70016729  4.95247719
  4.9524772   4.95247875  5.11951673  5.11951673  5.13378847  5.1337885
  5.1337885   5.18648762  5.35192206  5.35192206  5.44222155  5.44222164
  5.44222164  5.58307964  6.45593149  6.45593266  6.45593268  6.47758293
  6.47758313  6.47758314  7.42929343  8.44427732  8.44427801  8.4442787
 17.39789826 17.39789883 17.39789883 17.89025424 19.69493498 19.69493539
 19.6949355  19.8569306  42.30731567 42.30731567 42.35521946 42.35521946
 42.5135571  42.51355723 42.51355723 42.82771707 42.8277172  42.82771722
 82.66707591 82.66707599 82.66707599 84.39349821 84.39349828 84.39349829
 87.29398911 90.48779856]
   1 ( 0.000  0.000  0.500)   [-10.55506803 -10.55378475  -0.39333556  -0.24628034   0.22617331
   0.22617493] [ 1.10238463  1.10238565  1.11215729  1.3953281   1.645169    1.76119072
  1.79443044  1.79443158  2.07822709  2.07822734  2.54763592  2.87357396
  2.87357434  2.97389256  3.05432992  3.0543311   3.11514823  3.11514934
  3.29365473  3.71906883  3.71906887  3.80634955  3.80634968  3.91489995
  3.95891133  4.12250164  4.25960745  4.25960799  4.47182944  4.87215856
  5.06189256  5.19493115  5.19493217  5.34462159  5.40948824  5.56073147
  5.56073188  5.67170134  5.70225001  5.70225046  5.71848913  5.71849035
  6.21142099  6.21142159  6.36343002  6.42511945  6.42512002  6.7406749
  6.74067604  7.28513164  7.35180366  7.59614277  7.59614336  9.13092128
 17.32171617 18.19403087 18.19403127 18.47481833 18.71996172 19.51917703
 19.5191771  23.00399481 42.35641219 42.35641227 42.4141264  42.41412645
 42.46202649 42.48689537 42.48948424 42.48948424 42.50909914 42.50909915
 82.6469167  83.28271483 83.2827149  83.65381664 84.24208321 84.24208324
 88.27200053 96.28880323]
   2 (-0.000  0.500  0.000)   [-10.55506803 -10.55378475  -0.39333556  -0.24628034   0.22617331
   0.22617493] [ 1.10238463  1.10238565  1.11215729  1.3953281   1.645169    1.76119072
  1.79443044  1.79443158  2.07822709  2.07822734  2.5476359   2.87357396
  2.87357434  2.97389256  3.05432995  3.05433108  3.11514823  3.11514934
  3.29365457  3.71906883  3.71906886  3.80634955  3.80634968  3.91489995
  3.95891128  4.12250162  4.25960747  4.25960798  4.47182938  4.87215856
  5.06189256  5.19493115  5.19493217  5.34462153  5.40948822  5.56073144
  5.56073192  5.67170123  5.70225     5.70225047  5.71848913  5.71849034
  6.21142095  6.21142165  6.36342977  6.42511945  6.42512002  6.74067489
  6.74067604  7.28513149  7.35180351  7.59614275  7.5961434   9.13092093
 17.32171617 18.19403087 18.19403127 18.47481833 18.71996172 19.51917702
 19.51917713 23.00399463 42.35641219 42.35641227 42.4141264  42.41412645
 42.46202648 42.48689537 42.48948424 42.48948424 42.50909914 42.50909915
 82.6469167  83.28271483 83.2827149  83.65381664 84.24208321 84.24208324
 88.27200053 96.28880316]
   3 ( 0.000  0.500  0.500)   [-10.55447052 -10.55447051  -0.24262987  -0.2426288    0.07360133
   0.07360207] [ 0.91978604  0.91978736  1.50688802  1.50688848  1.73285226  1.73285319
  2.00866011  2.00866024  2.25253875  2.25253966  2.67009889  2.67009909
  2.67397312  2.67397316  2.7081692   2.70817011  2.83814504  2.83814544
  3.5698264   3.56982869  3.80156018  3.80156168  3.8741012   3.87410137
  4.47866824  4.47868394  4.50511992  4.50511992  4.52832453  4.52832506
  4.68838358  4.68838551  4.99938184  4.99938265  5.07440082  5.07440136
  5.55715708  5.55715778  5.69616969  5.69616972  6.09310316  6.09310387
  6.15305757  6.15306826  6.20939007  6.20939043  6.35888521  6.35888522
  7.05180759  7.05180988  7.42211932  7.4221194   8.29179126  8.29179157
 17.43746167 17.43746201 18.19354425 18.19354459 18.21060973 18.21060993
 19.85882572 19.85882592 42.3122869  42.31228691 42.34719376 42.3471938
 42.46984957 42.46984962 42.4940778  42.49407787 42.66730802 42.66730805
 82.68981044 82.68981049 83.27390466 83.27390466 83.28974243 83.28974247
 90.53400852 90.53400855]
   4 ( 0.500 -0.000 -0.000)   [-10.55506803 -10.55378475  -0.39333556  -0.24628034   0.22617331
   0.22617493] [ 1.10238463  1.10238565  1.11215729  1.3953281   1.645169    1.76119072
  1.79443044  1.79443158  2.07822709  2.07822734  2.54763592  2.87357396
  2.87357434  2.97389256  3.05432996  3.05433112  3.11514823  3.11514934
  3.29365478  3.71906883  3.71906886  3.80634955  3.80634968  3.91489995
  3.95891121  4.12250159  4.25960747  4.259608    4.47182945  4.87215856
  5.06189256  5.19493115  5.19493217  5.34462161  5.4094882   5.56073149
  5.56073193  5.67170105  5.70225     5.70225046  5.71848913  5.71849034
  6.21142101  6.21142166  6.3634301   6.42511945  6.42512002  6.74067489
  6.74067604  7.28513169  7.35180325  7.5961428   7.5961434   9.13092043
 17.32171617 18.19403087 18.19403127 18.47481834 18.71996172 19.51917704
 19.51917713 23.00399439 42.35641219 42.35641227 42.4141264  42.41412645
 42.46202649 42.48689537 42.48948424 42.48948424 42.50909914 42.50909915
 82.6469167  83.28271483 83.2827149  83.65381664 84.24208322 84.24208324
 88.27200053 96.28880311]
   5 ( 0.500  0.000  0.500)   [-10.55447052 -10.55447051  -0.24262987  -0.2426288    0.07360133
   0.07360207] [ 0.91978604  0.91978736  1.50688802  1.50688848  1.73285226  1.73285319
  2.00866011  2.00866024  2.25253875  2.25253966  2.67009889  2.67009909
  2.67397312  2.67397316  2.70816905  2.70816996  2.83814504  2.83814544
  3.56982593  3.56982821  3.80156018  3.80156167  3.8741012   3.87410137
  4.47865092  4.47866236  4.50511992  4.50511992  4.52832453  4.52832507
  4.68838358  4.6883855   4.99938184  4.99938265  5.07440082  5.07440136
  5.55715636  5.55715689  5.69616969  5.69616972  6.09310315  6.09310388
  6.1530458   6.15305363  6.20939006  6.20939043  6.35888521  6.35888522
  7.05180523  7.05180699  7.42211928  7.42211935  8.29179105  8.29179135
 17.43746167 17.43746201 18.19354424 18.19354458 18.21060955 18.21060971
 19.85882572 19.85882592 42.3122869  42.31228691 42.34719376 42.3471938
 42.46984953 42.46984957 42.4940778  42.49407787 42.66730802 42.66730804
 82.68981044 82.68981049 83.27390465 83.27390466 83.28974241 83.28974243
 90.53400852 90.53400855]
   6 ( 0.500  0.500  0.000)   [-10.55447052 -10.55447051  -0.24262987  -0.2426288    0.07360133
   0.07360207] [ 0.91978604  0.91978736  1.50688802  1.50688848  1.73285226  1.73285319
  2.00866011  2.00866024  2.25253875  2.25253966  2.67009889  2.67009909
  2.67397312  2.67397316  2.70816919  2.70817009  2.83814504  2.83814544
  3.56982635  3.56982864  3.80156018  3.80156167  3.8741012   3.87410137
  4.47866909  4.4786788   4.50511992  4.50511992  4.52832453  4.52832507
  4.68838358  4.68838551  4.99938184  4.99938265  5.07440082  5.07440136
  5.55715712  5.55715756  5.69616969  5.69616972  6.09310315  6.09310387
  6.15305813  6.15306484  6.20939006  6.20939043  6.35888521  6.35888522
  7.05180763  7.05180921  7.42211927  7.42211936  8.29179103  8.29179141
 17.43746167 17.43746201 18.19354424 18.19354458 18.21060974 18.21060989
 19.85882572 19.85882592 42.3122869  42.31228691 42.34719376 42.3471938
 42.46984957 42.46984961 42.4940778  42.49407787 42.66730802 42.66730804
 82.68981044 82.68981049 83.27390465 83.27390466 83.28974243 83.28974246
 90.53400852 90.53400855]
   7 ( 0.500  0.500  0.500)   [-10.55506801 -10.55378476  -0.39333457  -0.24628248   0.22617455
   0.22617455] [ 1.10238598  1.10238598  1.11215779  1.39532838  1.64516928  1.76118859
  1.79443065  1.79443065  2.07822611  2.07822611  2.54763689  2.87357414
  2.87357414  2.97389177  3.05433059  3.05433065  3.11515025  3.11515025
  3.29365565  3.71906856  3.71906856  3.80635044  3.80635044  3.91490134
  3.95891162  4.12250009  4.25960632  4.25960635  4.47183008  4.87215811
  5.06189265  5.19493234  5.19493235  5.34462231  5.40948793  5.56073204
  5.56073213  5.67170047  5.7022496   5.70224961  5.71848878  5.7184888
  6.21142123  6.21142134  6.36343021  6.42511949  6.42511949  6.74067493
  6.74067497  7.28513017  7.35180335  7.59614382  7.59614391  9.13092101
 17.32171573 18.19403115 18.19403115 18.47481832 18.7199618  19.51917714
 19.5191772  23.00399467 42.35641222 42.35641222 42.41412648 42.41412648
 42.46202643 42.48689533 42.48948427 42.48948427 42.50909914 42.50909914
 82.64691666 83.28271488 83.28271488 83.65381661 84.24208324 84.24208325
 88.27200055 96.2888031 ]
    CPU time for get_k_kpts: make_kpt ki>=kj (0,*)      1.95 sec, wall time      0.06 sec
    CPU time for get_k_kpts: make_kpt ki>=kj (1,*)      6.27 sec, wall time      0.20 sec
    CPU time for get_k_kpts: make_kpt ki>=kj (2,*)      9.69 sec, wall time      0.30 sec
    CPU time for get_k_kpts: make_kpt ki>=kj (3,*)     12.02 sec, wall time      0.38 sec
    CPU time for get_k_kpts: make_kpt ki>=kj (4,*)     13.14 sec, wall time      0.41 sec
    CPU time for get_k_kpts: make_kpt ki>=kj (5,*)     17.22 sec, wall time      0.54 sec
    CPU time for get_k_kpts: make_kpt ki>=kj (6,*)     19.46 sec, wall time      0.61 sec
    CPU time for get_k_kpts: make_kpt ki>=kj (7,*)     23.30 sec, wall time      0.74 sec
Monkhorst pack size [2 2 2] ew_eta 3.0566830812214194 ew_cut 2.30320412508748
Ewald components = 0, -1.72482326343322, 1.55476854344923
    CPU time for get_j pass 1      9.88 sec, wall time      0.33 sec
    CPU time for get_j pass 2      5.81 sec, wall time      0.21 sec
    CPU time for vj and vk    122.25 sec, wall time      3.89 sec
Ewald components = 3.0606179073546e-132, -242.469443607053, 213.698400957796
E1 = (-51.30699293783629-4.2317892579354526e-19j)  E_coul = (4.370520473287096-1.088268390693382e-19j)
cycle= 4 E= -75.7075151138061  delta_E= -3.74e-06  |g|= 0.00086  |ddm|= 0.112
    CPU time for cycle= 4    125.15 sec, wall time      3.98 sec
diis-norm(errvec)=0.00473358
diis-c [-4.00523451e-06+0.00000000e+00j -4.80141863e-03-4.70138161e-27j
  3.08303598e-02+2.46304094e-26j -2.07528843e-01-7.02188307e-26j
  1.18149990e+00+5.02898028e-26j]
HOMO = 0.343992040405  LUMO = 0.919768883255
     k-point                  mo_energy
   0 ( 0.000  0.000  0.000)   [-10.55539142 -10.55281869  -0.66454833   0.34399187   0.34399187
   0.34399204] [ 0.98920965  0.98920975  0.98920975  1.34115149  1.49655038  1.77988848
  1.77988848  1.82119045  1.82119056  1.82119056  2.07804657  2.6648743
  2.6648743   2.66487439  3.40668659  3.40668659  3.40668661  3.58006009
  3.58006009  3.78748374  3.78748389  3.78748389  3.94663027  3.94663027
  3.94663034  4.60552241  4.60552246  4.60552252  4.70020682  4.95247975
  4.95247989  4.95247989  5.11952492  5.11952492  5.13378337  5.1337834
  5.1337834   5.18648939  5.35192984  5.35192984  5.44221484  5.44221485
  5.44221485  5.58309855  6.45595704  6.45595706  6.45595717  6.4776031
  6.47760311  6.47760315  7.42931351  8.44430101  8.44430171  8.44430238
 17.3980459  17.3980459  17.39804595 17.89038247 19.69507574 19.69507584
 19.69507592 19.85705661 42.30750581 42.30750581 42.3554095  42.3554095
 42.51374696 42.51374696 42.51374698 42.82790635 42.82790637 42.82790638
 82.66731652 82.66731652 82.66731653 84.39373746 84.39373747 84.39373748
 87.29423265 90.48804211]
   1 ( 0.000  0.000  0.500)   [-10.55488128 -10.55359735  -0.39333072  -0.24633889   0.22618094
   0.22618104] [ 1.10237303  1.10237316  1.11218105  1.39531502  1.64520346  1.76122311
  1.79443187  1.79443198  2.07823336  2.07823339  2.54764176  2.87358176
  2.8735818   2.97391325  3.05433026  3.05433031  3.11516694  3.11516706
  3.29365676  3.71907368  3.71907369  3.80636107  3.80636108  3.91489127
  3.95893277  4.12252279  4.25960484  4.25960487  4.47185949  4.87215081
  5.06189723  5.19495354  5.19495365  5.34465017  5.40949435  5.56074357
  5.56074371  5.6717106   5.70225423  5.70225431  5.71849856  5.71849868
  6.21143616  6.21143635  6.36345548  6.42512744  6.42512748  6.74067815
  6.74067827  7.28514301  7.35181072  7.59617191  7.59617209  9.13096738
 17.32186451 18.19417724 18.19417728 18.474946   18.72010649 19.51931892
 19.51931899 23.00412239 42.35660225 42.35660226 42.41431635 42.41431635
 42.46221629 42.48708512 42.48967408 42.48967408 42.50928893 42.50928893
 82.64715738 83.28295502 83.28295503 83.65405656 84.24232265 84.24232267
 88.27224412 96.28904637]
   2 (-0.000  0.500  0.000)   [-10.55488128 -10.55359735  -0.39333072  -0.24633889   0.22618094
   0.22618104] [ 1.10237303  1.10237316  1.11218105  1.39531501  1.64520346  1.76122311
  1.79443187  1.79443198  2.07823336  2.07823339  2.54764174  2.87358176
  2.8735818   2.97391324  3.05433023  3.05433034  3.11516694  3.11516706
  3.29365661  3.71907368  3.71907369  3.80636107  3.80636108  3.91489127
  3.95893273  4.12252277  4.25960483  4.25960488  4.47185944  4.87215081
  5.06189722  5.19495354  5.19495365  5.3446501   5.40949433  5.5607436
  5.56074369  5.67171049  5.70225424  5.7022543   5.71849856  5.71849868
  6.2114362   6.21143632  6.36345523  6.42512744  6.42512748  6.74067816
  6.74067827  7.28514287  7.35181057  7.59617195  7.59617208  9.13096704
 17.32186451 18.19417724 18.19417728 18.474946   18.72010649 19.51931894
 19.51931899 23.00412221 42.35660225 42.35660226 42.41431635 42.41431635
 42.46221629 42.48708512 42.48967408 42.48967408 42.50928893 42.50928893
 82.64715738 83.28295502 83.28295503 83.65405656 84.24232266 84.24232267
 88.27224412 96.2890463 ]
   3 ( 0.000  0.500  0.500)   [-10.55428348 -10.55428348  -0.24264429  -0.24264411   0.07359103
   0.07359107] [ 0.91976888  0.91976902  1.50690316  1.50690317  1.73289265  1.73289278
  2.00866676  2.00866677  2.25253664  2.25253672  2.67010528  2.67010532
  2.67397444  2.67397446  2.70816738  2.70816754  2.83816034  2.83816038
  3.56983913  3.56983953  3.80156851  3.80156864  3.87413153  3.87413156
  4.47867196  4.47868775  4.50512982  4.50512982  4.52832462  4.52832467
  4.6884108   4.68841097  4.99939845  4.99939852  5.07441053  5.07441058
  5.55716766  5.55716832  5.69616519  5.6961652   6.09309496  6.09309504
  6.15307586  6.15308654  6.20940483  6.20940486  6.35890207  6.35890209
  7.05181472  7.05181685  7.42215104  7.42215112  8.29180331  8.29180362
 17.43760908 17.43760911 18.19368921 18.19368925 18.21075515 18.21075531
 19.8589528  19.85895282 42.31247703 42.31247703 42.34738385 42.34738386
 42.47003939 42.47003942 42.49426759 42.4942676  42.66749755 42.66749756
 82.69005102 82.69005103 83.27414482 83.27414482 83.2899826  83.28998262
 90.53425212 90.53425212]
   4 ( 0.500 -0.000 -0.000)   [-10.55488128 -10.55359735  -0.39333072  -0.24633889   0.22618094
   0.22618104] [ 1.10237303  1.10237316  1.11218105  1.39531502  1.64520346  1.76122311
  1.79443187  1.79443198  2.07823336  2.07823339  2.54764176  2.87358176
  2.8735818   2.97391324  3.05433026  3.05433035  3.11516694  3.11516706
  3.29365681  3.71907368  3.71907369  3.80636107  3.80636108  3.91489127
  3.95893266  4.12252274  4.25960485  4.25960489  4.47185951  4.87215081
  5.06189723  5.19495354  5.19495365  5.34465019  5.40949431  5.56074361
  5.56074374  5.67171031  5.70225424  5.7022543   5.71849856  5.71849868
  6.21143621  6.21143638  6.36345556  6.42512744  6.42512748  6.74067816
  6.74067826  7.28514307  7.35181031  7.59617195  7.59617213  9.13096653
 17.32186451 18.19417724 18.19417728 18.474946   18.72010649 19.51931894
 19.51931902 23.00412196 42.35660225 42.35660226 42.41431635 42.41431635
 42.46221629 42.48708512 42.48967408 42.48967408 42.50928893 42.50928893
 82.64715738 83.28295502 83.28295503 83.65405656 84.24232266 84.24232267
 88.27224412 96.28904625]
   5 ( 0.500  0.000  0.500)   [-10.55428348 -10.55428348  -0.24264429  -0.24264411   0.07359103
   0.07359107] [ 0.91976888  0.91976902  1.50690316  1.50690317  1.73289265  1.73289278
  2.00866676  2.00866678  2.25253664  2.25253672  2.67010528  2.67010532
  2.67397444  2.67397446  2.70816724  2.70816738  2.83816034  2.83816038
  3.5698387   3.56983901  3.80156851  3.80156864  3.87413153  3.87413156
  4.47865463  4.4786662   4.50512982  4.50512982  4.52832462  4.52832467
  4.6884108   4.68841096  4.99939845  4.99939852  5.07441053  5.07441058
  5.55716694  5.55716743  5.69616519  5.6961652   6.09309497  6.09309503
  6.15306408  6.15307192  6.20940483  6.20940486  6.35890207  6.35890209
  7.05181238  7.05181394  7.42215099  7.42215107  8.29180311  8.29180339
 17.43760908 17.43760911 18.1936892  18.19368924 18.21075497 18.21075509
 19.8589528  19.85895282 42.31247703 42.31247703 42.34738385 42.34738386
 42.47003935 42.47003938 42.49426759 42.4942676  42.66749755 42.66749756
 82.69005102 82.69005103 83.27414482 83.27414482 83.28998257 83.28998259
 90.53425212 90.53425212]
   6 ( 0.500  0.500  0.000)   [-10.55428348 -10.55428348  -0.24264429  -0.24264411   0.07359103
   0.07359107] [ 0.91976888  0.91976902  1.50690316  1.50690317  1.73289265  1.73289278
  2.00866676  2.00866678  2.25253664  2.25253672  2.67010528  2.67010532
  2.67397444  2.67397446  2.70816738  2.70816751  2.83816034  2.83816038
  3.56983915  3.56983941  3.80156851  3.80156864  3.87413153  3.87413156
  4.47867274  4.47868268  4.50512982  4.50512982  4.52832462  4.52832467
  4.6884108   4.68841096  4.99939845  4.99939852  5.07441053  5.07441058
  5.55716768  5.5571681   5.69616519  5.6961652   6.09309497  6.09309504
  6.15307641  6.15308313  6.20940483  6.20940486  6.35890207  6.35890209
  7.05181482  7.05181612  7.42215099  7.42215108  8.29180308  8.29180346
 17.43760908 17.43760911 18.1936892  18.19368924 18.21075517 18.21075526
 19.8589528  19.85895282 42.31247703 42.31247703 42.34738385 42.34738386
 42.47003939 42.47003941 42.49426759 42.4942676  42.66749755 42.66749756
 82.69005102 82.69005103 83.27414482 83.27414482 83.2899826  83.28998261
 90.53425212 90.53425212]
   7 ( 0.500  0.500  0.500)   [-10.55488128 -10.55359735  -0.3933308   -0.24633871   0.22618095
   0.22618095] [ 1.10237306  1.10237306  1.11218096  1.39531496  1.6452034   1.76122333
  1.79443195  1.79443195  2.07823349  2.07823349  2.54764169  2.8735818
  2.8735818   2.97391331  3.05433022  3.05433028  3.11516687  3.11516687
  3.29365679  3.71907369  3.7190737   3.806361    3.806361    3.91489112
  3.95893263  4.12252291  4.25960497  4.25960499  4.47185948  4.87215084
  5.0618972   5.19495353  5.19495353  5.34465015  5.40949433  5.56074352
  5.5607436   5.67171037  5.70225434  5.70225435  5.71849871  5.71849873
  6.21143616  6.21143627  6.36345564  6.42512746  6.42512747  6.74067825
  6.74067828  7.28514325  7.35181032  7.59617184  7.59617194  9.13096653
 17.32186456 18.19417725 18.19417725 18.474946   18.72010649 19.5193189
 19.51931895 23.00412194 42.35660226 42.35660226 42.41431634 42.41431634
 42.4622163  42.48708513 42.48967407 42.48967407 42.50928893 42.50928893
 82.64715739 83.28295502 83.28295502 83.65405657 84.24232265 84.24232266
 88.27224412 96.28904621]
    CPU time for get_k_kpts: make_kpt ki>=kj (0,*)      2.51 sec, wall time      0.08 sec
    CPU time for get_k_kpts: make_kpt ki>=kj (1,*)      6.38 sec, wall time      0.20 sec
    CPU time for get_k_kpts: make_kpt ki>=kj (2,*)      9.20 sec, wall time      0.29 sec
    CPU time for get_k_kpts: make_kpt ki>=kj (3,*)     10.34 sec, wall time      0.33 sec
    CPU time for get_k_kpts: make_kpt ki>=kj (4,*)     14.59 sec, wall time      0.47 sec
    CPU time for get_k_kpts: make_kpt ki>=kj (5,*)     18.61 sec, wall time      0.59 sec
    CPU time for get_k_kpts: make_kpt ki>=kj (6,*)     19.78 sec, wall time      0.62 sec
    CPU time for get_k_kpts: make_kpt ki>=kj (7,*)     21.90 sec, wall time      0.69 sec
Monkhorst pack size [2 2 2] ew_eta 3.0566830812214194 ew_cut 2.30320412508748
Ewald components = 0, -1.72482326343322, 1.55476854344923
    CPU time for get_j pass 1      9.04 sec, wall time      0.30 sec
    CPU time for get_j pass 2      5.61 sec, wall time      0.21 sec
    CPU time for vj and vk    120.61 sec, wall time      3.86 sec
Ewald components = 3.0606179073546e-132, -242.469443607053, 213.698400957796
E1 = (-51.30689748306199-4.2315050672809575e-19j)  E_coul = (4.370424977746107-1.0903098315068318e-19j)
cycle= 5 E= -75.7075151545728  delta_E= -4.08e-08  |g|= 0.000108  |ddm|= 0.00587
    CPU time for cycle= 5    123.60 sec, wall time      3.96 sec
HOMO = 0.343992045878  LUMO = 0.919767995021
     k-point                  mo_energy
   0 ( 0.000  0.000  0.000)   [-10.55540776 -10.55283514  -0.66454664   0.34399203   0.34399205
   0.34399205] [ 0.98920466  0.98920468  0.98920468  1.34115029  1.49655102  1.77988816
  1.77988816  1.82119076  1.82119076  1.82119076  2.07804873  2.66487114
  2.66487114  2.66487114  3.40668477  3.40668477  3.40668477  3.58005936
  3.58005936  3.78748259  3.7874826   3.7874826   3.94662642  3.94662642
  3.94662643  4.60552134  4.6055214   4.60552145  4.70020437  4.95247824
  4.95247824  4.95247825  5.11952297  5.11952297  5.1337825   5.13378252
  5.13378252  5.18648681  5.35192778  5.35192778  5.44221389  5.4422139
  5.4422139   5.58309768  6.45595366  6.45595368  6.4559537   6.47760131
  6.47760132  6.47760133  7.42931021  8.44429785  8.44429855  8.44429922
 17.3980326  17.3980326  17.3980326  17.89037129 19.69506321 19.69506329
 19.69506337 19.85704547 42.30748902 42.30748902 42.35539272 42.35539272
 42.51373023 42.51373023 42.51373024 42.82788965 42.82788967 42.82788968
 82.66729154 82.66729154 82.66729154 84.39371262 84.39371263 84.39371264
 87.29420609 90.48801546]
   1 ( 0.000  0.000  0.500)   [-10.55489764 -10.55361377  -0.39332832  -0.24633748   0.22618017
   0.22618019] [ 1.10236913  1.10236913  1.11218036  1.39531232  1.64520049  1.76121992
  1.79443124  1.79443125  2.0782329   2.07823291  2.54764235  2.87358011
  2.87358012  2.9739112   3.05433016  3.05433023  3.11516423  3.11516424
  3.29365789  3.71907252  3.71907253  3.80635831  3.80635832  3.91488982
  3.95893096  4.12252109  4.25960411  4.25960414  4.47185601  4.87215022
  5.06189575  5.1949508   5.1949508   5.34464665  5.40949257  5.56074119
  5.56074128  5.67170947  5.70225198  5.70225199  5.71849592  5.71849594
  6.21143382  6.21143394  6.36345344  6.42512631  6.42512632  6.74067682
  6.74067686  7.2851401   7.35180871  7.59616851  7.59616861  9.1309637
 17.3218514  18.19416418 18.19416419 18.47493479 18.72009375 19.51930645
 19.51930651 23.00411092 42.35658549 42.35658549 42.41429957 42.41429957
 42.46219952 42.48706837 42.48965733 42.48965733 42.50927218 42.50927218
 82.64713242 83.28293009 83.28293009 83.65403168 84.24229782 84.24229782
 88.27221753 96.28901965]
   2 (-0.000  0.500  0.000)   [-10.55489764 -10.55361377  -0.39332832  -0.24633748   0.22618017
   0.22618019] [ 1.10236913  1.10236913  1.11218036  1.39531231  1.64520049  1.76121992
  1.79443124  1.79443125  2.0782329   2.07823291  2.54764233  2.87358011
  2.87358012  2.9739112   3.05433017  3.05433022  3.11516424  3.11516424
  3.29365774  3.71907252  3.71907253  3.80635831  3.80635832  3.91488982
  3.95893092  4.12252107  4.25960412  4.25960414  4.47185596  4.87215022
  5.06189575  5.1949508   5.1949508   5.34464658  5.40949256  5.56074122
  5.56074128  5.67170935  5.70225198  5.70225199  5.71849593  5.71849594
  6.21143385  6.21143393  6.36345319  6.42512631  6.42512632  6.74067683
  6.74067685  7.28513995  7.35180856  7.59616853  7.59616861  9.13096335
 17.3218514  18.19416418 18.19416419 18.47493479 18.72009375 19.51930646
 19.5193065  23.00411074 42.35658549 42.35658549 42.41429957 42.41429957
 42.46219952 42.48706837 42.48965733 42.48965733 42.50927218 42.50927218
 82.64713242 83.28293009 83.28293009 83.65403168 84.24229782 84.24229782
 88.27221753 96.28901958]
   3 ( 0.000  0.500  0.500)   [-10.55429986 -10.55429986  -0.24264195  -0.24264194   0.07359025
   0.07359026] [ 0.919768    0.919768    1.50689676  1.50689677  1.73288855  1.73288855
  2.00866687  2.00866688  2.25253652  2.25253652  2.67010427  2.67010427
  2.67397548  2.67397549  2.70816766  2.70816779  2.83815961  2.83815961
  3.56983637  3.56983675  3.8015663   3.80156631  3.87412814  3.87412814
  4.47867384  4.47868962  4.50512817  4.50512817  4.5283235   4.5283235
  4.68840805  4.68840807  4.9993961   4.99939611  5.07440811  5.07440812
  5.55716491  5.55716557  5.69616337  5.69616338  6.09309368  6.09309368
  6.15307324  6.15308392  6.20940335  6.20940336  6.35889945  6.35889945
  7.05181239  7.05181453  7.42214794  7.42214802  8.29180141  8.29180172
 17.43759581 17.43759581 18.19367637 18.19367638 18.21074239 18.21074254
 19.85894161 19.85894161 42.31246025 42.31246025 42.34736708 42.34736708
 42.47002262 42.47002265 42.49425085 42.49425085 42.66748084 42.66748085
 82.69002605 82.69002605 83.2741199  83.27411991 83.28995769 83.28995771
 90.53422548 90.53422548]
   4 ( 0.500 -0.000 -0.000)   [-10.55489764 -10.55361377  -0.39332832  -0.24633748   0.22618017
   0.22618019] [ 1.10236913  1.10236913  1.11218036  1.39531232  1.64520049  1.76121992
  1.79443125  1.79443125  2.0782329   2.07823291  2.54764235  2.87358011
  2.87358012  2.9739112   3.05433018  3.05433025  3.11516423  3.11516424
  3.29365794  3.71907252  3.71907252  3.80635831  3.80635832  3.91488982
  3.95893085  4.12252104  4.25960412  4.25960415  4.47185603  4.87215022
  5.06189575  5.1949508   5.1949508   5.34464666  5.40949253  5.56074123
  5.56074132  5.67170918  5.70225198  5.70225199  5.71849593  5.71849593
  6.21143387  6.21143398  6.36345352  6.42512631  6.42512632  6.74067683
  6.74067684  7.28514015  7.3518083   7.59616854  7.59616865  9.13096285
 17.3218514  18.19416418 18.19416418 18.4749348  18.72009375 19.51930646
 19.51930653 23.00411049 42.35658549 42.35658549 42.41429957 42.41429958
 42.46219952 42.48706837 42.48965733 42.48965733 42.50927218 42.50927218
 82.64713242 83.28293009 83.28293009 83.65403168 84.24229782 84.24229783
 88.27221753 96.28901953]
   5 ( 0.500  0.000  0.500)   [-10.55429986 -10.55429986  -0.24264195  -0.24264194   0.07359025
   0.07359026] [ 0.919768    0.919768    1.50689676  1.50689677  1.73288855  1.73288855
  2.00866687  2.00866688  2.25253652  2.25253652  2.67010427  2.67010427
  2.67397548  2.67397549  2.70816753  2.70816762  2.83815961  2.83815961
  3.56983595  3.56983623  3.80156629  3.80156631  3.87412814  3.87412815
  4.47865651  4.47866807  4.50512817  4.50512817  4.5283235   4.5283235
  4.68840805  4.68840807  4.9993961   4.99939611  5.07440811  5.07440812
  5.55716419  5.55716467  5.69616337  5.69616338  6.09309368  6.09309368
  6.15306146  6.1530693   6.20940335  6.20940336  6.35889945  6.35889946
  7.05181005  7.05181163  7.4221479   7.42214797  8.2918012   8.29180149
 17.43759581 17.43759581 18.19367636 18.19367637 18.21074221 18.21074232
 19.85894161 19.85894161 42.31246025 42.31246025 42.34736708 42.34736708
 42.47002258 42.47002261 42.49425085 42.49425085 42.66748084 42.66748084
 82.69002605 82.69002605 83.2741199  83.2741199  83.28995767 83.28995769
 90.53422548 90.53422548]
   6 ( 0.500  0.500  0.000)   [-10.55429986 -10.55429986  -0.24264195  -0.24264194   0.07359025
   0.07359026] [ 0.919768    0.919768    1.50689676  1.50689677  1.73288855  1.73288855
  2.00866687  2.00866688  2.25253652  2.25253652  2.67010427  2.67010427
  2.67397548  2.67397549  2.70816767  2.70816775  2.83815961  2.83815961
  3.56983639  3.56983663  3.80156629  3.80156631  3.87412814  3.87412815
  4.47867463  4.47868454  4.50512817  4.50512817  4.5283235   4.5283235
  4.68840805  4.68840807  4.9993961   4.99939611  5.07440811  5.07440812
  5.55716494  5.55716535  5.69616337  5.69616338  6.09309368  6.09309368
  6.15307379  6.1530805   6.20940335  6.20940336  6.35889945  6.35889946
  7.05181249  7.0518138   7.42214789  7.42214798  8.29180118  8.29180155
 17.43759581 17.43759581 18.19367636 18.19367638 18.2107424  18.2107425
 19.85894161 19.85894161 42.31246025 42.31246025 42.34736708 42.34736708
 42.47002262 42.47002264 42.49425085 42.49425085 42.66748084 42.66748084
 82.69002605 82.69002605 83.2741199  83.2741199  83.2899577  83.28995771
 90.53422548 90.53422548]
   7 ( 0.500  0.500  0.500)   [-10.55489764 -10.55361377  -0.39332831  -0.2463375    0.22618018
   0.22618018] [ 1.10236915  1.10236915  1.11218035  1.39531231  1.64520048  1.76121992
  1.79443124  1.79443125  2.0782329   2.0782329   2.54764237  2.87358012
  2.87358012  2.9739112   3.05433014  3.0543302   3.11516425  3.11516425
  3.293658    3.71907251  3.71907251  3.80635832  3.80635832  3.91488982
  3.95893086  4.12252105  4.2596041   4.25960412  4.47185605  4.87215021
  5.06189574  5.1949508   5.19495081  5.34464669  5.40949253  5.56074117
  5.56074125  5.67170918  5.70225198  5.70225199  5.71849592  5.71849594
  6.21143379  6.2114339   6.3634536   6.42512631  6.42512631  6.74067682
  6.74067685  7.28514017  7.35180832  7.59616848  7.59616858  9.1309629
 17.3218514  18.19416418 18.19416419 18.47493479 18.72009376 19.51930643
 19.51930649 23.0041105  42.35658549 42.35658549 42.41429957 42.41429957
 42.46219952 42.48706837 42.48965733 42.48965733 42.50927218 42.50927218
 82.64713243 83.28293009 83.28293009 83.65403168 84.24229781 84.24229782
 88.27221753 96.2890195 ]
    CPU time for get_k_kpts: make_kpt ki>=kj (0,*)      2.03 sec, wall time      0.06 sec
    CPU time for get_k_kpts: make_kpt ki>=kj (1,*)      5.25 sec, wall time      0.16 sec
    CPU time for get_k_kpts: make_kpt ki>=kj (2,*)      8.25 sec, wall time      0.26 sec
    CPU time for get_k_kpts: make_kpt ki>=kj (3,*)     12.31 sec, wall time      0.39 sec
    CPU time for get_k_kpts: make_kpt ki>=kj (4,*)     14.44 sec, wall time      0.45 sec
    CPU time for get_k_kpts: make_kpt ki>=kj (5,*)     16.64 sec, wall time      0.52 sec
    CPU time for get_k_kpts: make_kpt ki>=kj (6,*)     19.02 sec, wall time      0.60 sec
    CPU time for get_k_kpts: make_kpt ki>=kj (7,*)     24.80 sec, wall time      0.78 sec
Monkhorst pack size [2 2 2] ew_eta 3.0566830812214194 ew_cut 2.30320412508748
Ewald components = 0, -1.72482326343322, 1.55476854344923
    CPU time for get_j pass 1      9.25 sec, wall time      0.32 sec
    CPU time for get_j pass 2      5.66 sec, wall time      0.21 sec
    CPU time for vj and vk    121.74 sec, wall time      3.90 sec
Ewald components = 3.0606179073546e-132, -242.469443607053, 213.698400957796
E1 = (-51.30689779487429-4.229562131829496e-19j)  E_coul = (4.370425289075014-1.0858442845703528e-19j)
Extra cycle  E= -75.7075151550562  delta_E= -4.83e-10  |g|= 2.7e-05  |ddm|= 0.00227
    CPU time for scf_cycle  25034.09 sec, wall time    839.99 sec
    CPU time for SCF  25034.13 sec, wall time    840.03 sec
converged SCF energy = -75.7075151550562
