#INFO: **** input file is /burg/berkelbach/users/eav2136/projects/core_level_spectroscopy/01_peommp2_cbe/meanfield.py ****
#!/usr/bin/env python
import json
from pyscf.pbc import gto, scf
from pyscf.pbc.tools import lattice, pyscf_ase
from pyscf.pbc.scf import chkfile
from fileutils import load, dump
import sys

material = load("data/{}".format(sys.argv[1]))
# Create Cell
cell = gto.Cell()
ase_atom = lattice.get_ase_atom(material["formula"])
cell.atom = pyscf_ase.ase_atoms_to_pyscf(ase_atom)
cell.a = ase_atom.cell[:]
cell.unit = "B"
cell.basis = material["basis"]
cell.exp_to_discard = material["exp_to_discard"]
cell.verbose = 7
cell.build()

# Mean Field
kdensity = material["kdensity"]
kmesh = [kdensity, kdensity, kdensity]
kpts = cell.make_kpts(kmesh, scaled_center=material["vb_scaled_center"])
mymf = scf.KRHF(cell, kpts=kpts, exxdiv="ewald")
mymf.chkfile = "data/{}".format(material["chk"])
mymf = mymf.density_fit()
mymf.with_df._cderi_to_save = "data/{}".format(material["cderi"])
ekrhf = mymf.kernel()
convergence = mymf.converged
mymf_data = dict([("ekrhf", float(ekrhf)),
                  ("convergence", bool(convergence))])
dump(mymf_data, "data/{}".format(material["ekrhf"]))
#INFO: ******************** input file end ********************


System: uname_result(system='Linux', node='g122', release='4.18.0-193.el8.x86_64', version='#1 SMP Fri Mar 27 14:35:58 UTC 2020', machine='x86_64')  Threads 32
Python 3.10.12 (main, Jul 29 2023, 11:27:27) [GCC 13.2.0]
numpy 1.25.1  scipy 1.10.1
Date: Wed Oct 18 15:36:28 2023
PySCF version 2.0.1
PySCF path  /burg/berkelbach/users/eav2136/builds/pyscf/projected-cvs/pyscf
GIT HEAD (branch projected-cvs) 0bfbc692adf3ea63b8a509210433219cd1c472a2

[ENV] PYSCF_TMPDIR /burg/berkelbach/users/eav2136/projects/core_level_spectroscopy/01_peommp2_cbe/tmp
[ENV] PYSCF_MAX_MEMORY 700000
[CONFIG] DEBUG = False
[CONFIG] MAX_MEMORY = 700000
[CONFIG] TMPDIR = /burg/berkelbach/users/eav2136/projects/core_level_spectroscopy/01_peommp2_cbe/tmp
[CONFIG] UNIT = angstrom
[CONFIG] VERBOSE = 3
[CONFIG] conf_file = None
[INPUT] verbose = 7
[INPUT] max_memory = 700000 
[INPUT] num. atoms = 2
[INPUT] num. electrons = 12
[INPUT] charge = 0
[INPUT] spin (= nelec alpha-beta = 2S) = 0
[INPUT] symmetry False subgroup None
[INPUT] Mole.unit = B
[INPUT]  1 C      0.000000000000   0.000000000000   0.000000000000 AA    0.000000000000   0.000000000000   0.000000000000 Bohr
[INPUT]  2 C      0.891699936031   0.891699936031   0.891699936031 AA    1.685068664391   1.685068664391   1.685068664391 Bohr
[INPUT] ---------------- BASIS SET ---------------- 
[INPUT] l, kappa, [nprim/nctr], expnt,             c_1 c_2 ...
[INPUT] C
[INPUT] 0    0    [8    /2   ]  8236              0.000531 -0.000113
                                1235              0.004108 -0.000878
                                280.8             0.021087 -0.00454
                                79.27             0.081853 -0.018133
                                25.59             0.234817 -0.05576
                                8.997             0.434401 -0.126895
                                3.319             0.346129 -0.170352
                                0.3643            -0.008983 0.598684
[INPUT] 0    0    [1    /1   ]  0.9059               1
[INPUT] 0    0    [1    /1   ]  0.1285               1
[INPUT] 1    0    [3    /1   ]  18.71             0.014031
                                4.133             0.086866
                                1.2               0.290216
[INPUT] 1    0    [1    /1   ]  0.3827               1
[INPUT] 1    0    [1    /1   ]  0.1209               1
[INPUT] 2    0    [1    /1   ]  1.097                1
[INPUT] 2    0    [1    /1   ]  0.318                1
[INPUT] 3    0    [1    /1   ]  0.761                1
[INPUT] 0    0    [1    /1   ]  4.292                1
[INPUT] 0    0    [1    /1   ]  11.876               1
[INPUT] 1    0    [1    /1   ]  8.778                1
[INPUT] 1    0    [1    /1   ]  33.19                1
[INPUT] 2    0    [1    /1   ]  14.839               1

Ewald components = 3.0606179073546e-132, -242.469443607053, 213.698400957796
nuclear repulsion = -28.7710426492569
number of shells = 28
number of NR pGTOs = 110
number of NR cGTOs = 86
basis = ccpcvtz
ecp = {}
bas 0, expnt(s) = [8.236e+03 1.235e+03 2.808e+02 7.927e+01 2.559e+01 8.997e+00 3.319e+00
 3.643e-01]
bas 1, expnt(s) = [0.9059]
bas 2, expnt(s) = [0.1285]
bas 3, expnt(s) = [18.71   4.133  1.2  ]
bas 4, expnt(s) = [0.3827]
bas 5, expnt(s) = [0.1209]
bas 6, expnt(s) = [1.097]
bas 7, expnt(s) = [0.318]
bas 8, expnt(s) = [0.761]
bas 9, expnt(s) = [4.292]
bas 10, expnt(s) = [11.876]
bas 11, expnt(s) = [8.778]
bas 12, expnt(s) = [33.19]
bas 13, expnt(s) = [14.839]
bas 14, expnt(s) = [8.236e+03 1.235e+03 2.808e+02 7.927e+01 2.559e+01 8.997e+00 3.319e+00
 3.643e-01]
bas 15, expnt(s) = [0.9059]
bas 16, expnt(s) = [0.1285]
bas 17, expnt(s) = [18.71   4.133  1.2  ]
bas 18, expnt(s) = [0.3827]
bas 19, expnt(s) = [0.1209]
bas 20, expnt(s) = [1.097]
bas 21, expnt(s) = [0.318]
bas 22, expnt(s) = [0.761]
bas 23, expnt(s) = [4.292]
bas 24, expnt(s) = [11.876]
bas 25, expnt(s) = [8.778]
bas 26, expnt(s) = [33.19]
bas 27, expnt(s) = [14.839]
CPU time:         1.44
lattice vectors  a1 [0.000000000, 3.370137329, 3.370137329]
                 a2 [3.370137329, 0.000000000, 3.370137329]
                 a3 [3.370137329, 3.370137329, 0.000000000]
dimension = 3
low_dim_ft_type = None
Cell volume = 76.5549
rcut = 22.27072948899357 (nimgs = [6 6 6])
lattice sum = 1313 cells
precision = 1e-08
pseudo = None
ke_cutoff = 105639.11192401215
    = [570 570 570] mesh (185193000 PWs)


******** <class 'pyscf.pbc.scf.khf.KRHF'> ********
method = KRHF-KSCF-RHF-SCF-RHF
initial guess = minao
damping factor = 0
level_shift factor = 0
DIIS = <class 'pyscf.scf.diis.CDIIS'>
diis_start_cycle = 1
diis_space = 8
SCF conv_tol = 1e-07
SCF conv_tol_grad = None
SCF max_cycles = 50
direct_scf = True
direct_scf_tol = 1e-13
chkfile to save SCF result = data/c_ccpcvtz_k4_C_1s_nvir_act66.chk
max_memory 700000 MB (current use 83 MB)


******** PBC SCF flags ********
N kpts = 64
kpts = [[ 0.00000000e+00  0.00000000e+00  0.00000000e+00]
 [ 2.33046338e-01  2.33046338e-01 -2.33046338e-01]
 [ 4.66092676e-01  4.66092676e-01 -4.66092676e-01]
 [ 6.99139014e-01  6.99139014e-01 -6.99139014e-01]
 [ 2.33046338e-01 -2.33046338e-01  2.33046338e-01]
 [ 4.66092676e-01  0.00000000e+00  0.00000000e+00]
 [ 6.99139014e-01  2.33046338e-01 -2.33046338e-01]
 [ 9.32185352e-01  4.66092676e-01 -4.66092676e-01]
 [ 4.66092676e-01 -4.66092676e-01  4.66092676e-01]
 [ 6.99139014e-01 -2.33046338e-01  2.33046338e-01]
 [ 9.32185352e-01  0.00000000e+00  0.00000000e+00]
 [ 1.16523169e+00  2.33046338e-01 -2.33046338e-01]
 [ 6.99139014e-01 -6.99139014e-01  6.99139014e-01]
 [ 9.32185352e-01 -4.66092676e-01  4.66092676e-01]
 [ 1.16523169e+00 -2.33046338e-01  2.33046338e-01]
 [ 1.39827803e+00 -2.77555756e-17  2.77555756e-17]
 [-2.33046338e-01  2.33046338e-01  2.33046338e-01]
 [ 0.00000000e+00  4.66092676e-01  0.00000000e+00]
 [ 2.33046338e-01  6.99139014e-01 -2.33046338e-01]
 [ 4.66092676e-01  9.32185352e-01 -4.66092676e-01]
 [ 0.00000000e+00  0.00000000e+00  4.66092676e-01]
 [ 2.33046338e-01  2.33046338e-01  2.33046338e-01]
 [ 4.66092676e-01  4.66092676e-01  0.00000000e+00]
 [ 6.99139014e-01  6.99139014e-01 -2.33046338e-01]
 [ 2.33046338e-01 -2.33046338e-01  6.99139014e-01]
 [ 4.66092676e-01  0.00000000e+00  4.66092676e-01]
 [ 6.99139014e-01  2.33046338e-01  2.33046338e-01]
 [ 9.32185352e-01  4.66092676e-01  2.77555756e-17]
 [ 4.66092676e-01 -4.66092676e-01  9.32185352e-01]
 [ 6.99139014e-01 -2.33046338e-01  6.99139014e-01]
 [ 9.32185352e-01  0.00000000e+00  4.66092676e-01]
 [ 1.16523169e+00  2.33046338e-01  2.33046338e-01]
 [-4.66092676e-01  4.66092676e-01  4.66092676e-01]
 [-2.33046338e-01  6.99139014e-01  2.33046338e-01]
 [ 0.00000000e+00  9.32185352e-01  0.00000000e+00]
 [ 2.33046338e-01  1.16523169e+00 -2.33046338e-01]
 [-2.33046338e-01  2.33046338e-01  6.99139014e-01]
 [ 0.00000000e+00  4.66092676e-01  4.66092676e-01]
 [ 2.33046338e-01  6.99139014e-01  2.33046338e-01]
 [ 4.66092676e-01  9.32185352e-01  2.77555756e-17]
 [ 0.00000000e+00  0.00000000e+00  9.32185352e-01]
 [ 2.33046338e-01  2.33046338e-01  6.99139014e-01]
 [ 4.66092676e-01  4.66092676e-01  4.66092676e-01]
 [ 6.99139014e-01  6.99139014e-01  2.33046338e-01]
 [ 2.33046338e-01 -2.33046338e-01  1.16523169e+00]
 [ 4.66092676e-01  0.00000000e+00  9.32185352e-01]
 [ 6.99139014e-01  2.33046338e-01  6.99139014e-01]
 [ 9.32185352e-01  4.66092676e-01  4.66092676e-01]
 [-6.99139014e-01  6.99139014e-01  6.99139014e-01]
 [-4.66092676e-01  9.32185352e-01  4.66092676e-01]
 [-2.33046338e-01  1.16523169e+00  2.33046338e-01]
 [-2.77555756e-17  1.39827803e+00  2.77555756e-17]
 [-4.66092676e-01  4.66092676e-01  9.32185352e-01]
 [-2.33046338e-01  6.99139014e-01  6.99139014e-01]
 [-5.55111512e-17  9.32185352e-01  4.66092676e-01]
 [ 2.33046338e-01  1.16523169e+00  2.33046338e-01]
 [-2.33046338e-01  2.33046338e-01  1.16523169e+00]
 [-2.77555756e-17  4.66092676e-01  9.32185352e-01]
 [ 2.33046338e-01  6.99139014e-01  6.99139014e-01]
 [ 4.66092676e-01  9.32185352e-01  4.66092676e-01]
 [-2.77555756e-17  2.77555756e-17  1.39827803e+00]
 [ 2.33046338e-01  2.33046338e-01  1.16523169e+00]
 [ 4.66092676e-01  4.66092676e-01  9.32185352e-01]
 [ 6.99139014e-01  6.99139014e-01  6.99139014e-01]]
Exchange divergence treatment (exxdiv) = ewald
Monkhorst pack size [4 4 4] ew_eta 1.567785923794447 ew_cut 4.486233713020537
Ewald components = 0, -0.88465892227202, 0.799631562152575
    madelung (= occupied orbital energy shift) = 0.17005472023889068
    Total energy shift due to Ewald probe charge = -1/2 * Nelec*madelung = -1.02032832143
DF object = <pyscf.pbc.df.df.GDF object at 0x155553f2bfa0>
Set gradient conv threshold to 0.000316228
Big error detected in the electron number of initial guess density matrix (Ne/cell = 11.9994)!
  This can cause huge error in Fock matrix and lead to instability in SCF for low-dimensional systems.
  DM is normalized wrt the number of electrons 12.0
    CPU time for vnuc pass1: analytic int    851.25 sec, wall time     27.78 sec
    CPU time for contracting Vnuc [0:216]     30.05 sec, wall time      0.99 sec
    CPU time for contracting Vnuc     30.06 sec, wall time      0.99 sec
    CPU time for get_nuc    881.53 sec, wall time     28.78 sec


******** <class 'pyscf.pbc.df.df.GDF'> ********
mesh = [7, 7, 7] (343 PWs)
auxbasis = None
eta = 0.2
exp_to_discard = None
_cderi_to_save = data/c_ccpcvtz_k4_C_1s_nvir_act66_cderi.h5
len(kpts) = 64
    kpts = [[ 0.00000000e+00  0.00000000e+00  0.00000000e+00]
 [ 2.33046338e-01  2.33046338e-01 -2.33046338e-01]
 [ 4.66092676e-01  4.66092676e-01 -4.66092676e-01]
 [ 6.99139014e-01  6.99139014e-01 -6.99139014e-01]
 [ 2.33046338e-01 -2.33046338e-01  2.33046338e-01]
 [ 4.66092676e-01  0.00000000e+00  0.00000000e+00]
 [ 6.99139014e-01  2.33046338e-01 -2.33046338e-01]
 [ 9.32185352e-01  4.66092676e-01 -4.66092676e-01]
 [ 4.66092676e-01 -4.66092676e-01  4.66092676e-01]
 [ 6.99139014e-01 -2.33046338e-01  2.33046338e-01]
 [ 9.32185352e-01  0.00000000e+00  0.00000000e+00]
 [ 1.16523169e+00  2.33046338e-01 -2.33046338e-01]
 [ 6.99139014e-01 -6.99139014e-01  6.99139014e-01]
 [ 9.32185352e-01 -4.66092676e-01  4.66092676e-01]
 [ 1.16523169e+00 -2.33046338e-01  2.33046338e-01]
 [ 1.39827803e+00 -2.77555756e-17  2.77555756e-17]
 [-2.33046338e-01  2.33046338e-01  2.33046338e-01]
 [ 0.00000000e+00  4.66092676e-01  0.00000000e+00]
 [ 2.33046338e-01  6.99139014e-01 -2.33046338e-01]
 [ 4.66092676e-01  9.32185352e-01 -4.66092676e-01]
 [ 0.00000000e+00  0.00000000e+00  4.66092676e-01]
 [ 2.33046338e-01  2.33046338e-01  2.33046338e-01]
 [ 4.66092676e-01  4.66092676e-01  0.00000000e+00]
 [ 6.99139014e-01  6.99139014e-01 -2.33046338e-01]
 [ 2.33046338e-01 -2.33046338e-01  6.99139014e-01]
 [ 4.66092676e-01  0.00000000e+00  4.66092676e-01]
 [ 6.99139014e-01  2.33046338e-01  2.33046338e-01]
 [ 9.32185352e-01  4.66092676e-01  2.77555756e-17]
 [ 4.66092676e-01 -4.66092676e-01  9.32185352e-01]
 [ 6.99139014e-01 -2.33046338e-01  6.99139014e-01]
 [ 9.32185352e-01  0.00000000e+00  4.66092676e-01]
 [ 1.16523169e+00  2.33046338e-01  2.33046338e-01]
 [-4.66092676e-01  4.66092676e-01  4.66092676e-01]
 [-2.33046338e-01  6.99139014e-01  2.33046338e-01]
 [ 0.00000000e+00  9.32185352e-01  0.00000000e+00]
 [ 2.33046338e-01  1.16523169e+00 -2.33046338e-01]
 [-2.33046338e-01  2.33046338e-01  6.99139014e-01]
 [ 0.00000000e+00  4.66092676e-01  4.66092676e-01]
 [ 2.33046338e-01  6.99139014e-01  2.33046338e-01]
 [ 4.66092676e-01  9.32185352e-01  2.77555756e-17]
 [ 0.00000000e+00  0.00000000e+00  9.32185352e-01]
 [ 2.33046338e-01  2.33046338e-01  6.99139014e-01]
 [ 4.66092676e-01  4.66092676e-01  4.66092676e-01]
 [ 6.99139014e-01  6.99139014e-01  2.33046338e-01]
 [ 2.33046338e-01 -2.33046338e-01  1.16523169e+00]
 [ 4.66092676e-01  0.00000000e+00  9.32185352e-01]
 [ 6.99139014e-01  2.33046338e-01  6.99139014e-01]
 [ 9.32185352e-01  4.66092676e-01  4.66092676e-01]
 [-6.99139014e-01  6.99139014e-01  6.99139014e-01]
 [-4.66092676e-01  9.32185352e-01  4.66092676e-01]
 [-2.33046338e-01  1.16523169e+00  2.33046338e-01]
 [-2.77555756e-17  1.39827803e+00  2.77555756e-17]
 [-4.66092676e-01  4.66092676e-01  9.32185352e-01]
 [-2.33046338e-01  6.99139014e-01  6.99139014e-01]
 [-5.55111512e-17  9.32185352e-01  4.66092676e-01]
 [ 2.33046338e-01  1.16523169e+00  2.33046338e-01]
 [-2.33046338e-01  2.33046338e-01  1.16523169e+00]
 [-2.77555756e-17  4.66092676e-01  9.32185352e-01]
 [ 2.33046338e-01  6.99139014e-01  6.99139014e-01]
 [ 4.66092676e-01  9.32185352e-01  4.66092676e-01]
 [-2.77555756e-17  2.77555756e-17  1.39827803e+00]
 [ 2.33046338e-01  2.33046338e-01  1.16523169e+00]
 [ 4.66092676e-01  4.66092676e-01  9.32185352e-01]
 [ 6.99139014e-01  6.99139014e-01  6.99139014e-01]]
Even tempered Gaussians are generated as DF auxbasis for  C
  ETB auxbasis for C  [[0, [2105.344, 1]], [0, [1052.672, 1]], [0, [526.336, 1]], [0, [263.168, 1]], [0, [131.584, 1]], [0, [65.792, 1]], [0, [32.896, 1]], [0, [16.448, 1]], [0, [8.224, 1]], [0, [4.112, 1]], [0, [2.056, 1]], [0, [1.028, 1]], [0, [0.514, 1]], [0, [0.257, 1]], [1, [255.26699539423424, 1]], [1, [127.63349769711712, 1]], [1, [63.81674884855856, 1]], [1, [31.90837442427928, 1]], [1, [15.95418721213964, 1]], [1, [7.97709360606982, 1]], [1, [3.98854680303491, 1]], [1, [1.994273401517455, 1]], [1, [0.9971367007587275, 1]], [1, [0.49856835037936376, 1]], [1, [0.24928417518968188, 1]], [2, [247.6032, 1]], [2, [123.8016, 1]], [2, [61.9008, 1]], [2, [30.9504, 1]], [2, [15.4752, 1]], [2, [7.7376, 1]], [2, [3.8688, 1]], [2, [1.9344, 1]], [2, [0.9672, 1]], [2, [0.4836, 1]], [2, [0.2418, 1]], [3, [25.09785928719818, 1]], [3, [12.54892964359909, 1]], [3, [6.274464821799545, 1]], [3, [3.1372324108997725, 1]], [3, [1.5686162054498862, 1]], [3, [0.7843081027249431, 1]], [3, [0.39215405136247156, 1]], [4, [20.352, 1]], [4, [10.176, 1]], [4, [5.088, 1]], [4, [2.544, 1]], [4, [1.272, 1]], [4, [0.636, 1]]]
num shells = 98, num cGTOs = 410
Drop 0 primitive fitting functions
make aux basis, num shells = 98, num cGTOs = 410
auxcell.rcut 12.950571518732957
make compensating basis, num shells = 10, num cGTOs = 50
chgcell.rcut 11.482117703874595
    CPU time for 3c2e  34080.29 sec, wall time   1241.52 sec
Num uniq kpts 172
uniq_kpts [[ 0.00000000e+00  0.00000000e+00  0.00000000e+00]
 [-2.33046338e-01 -2.33046338e-01  2.33046338e-01]
 [-4.66092676e-01 -4.66092676e-01  4.66092676e-01]
 [-6.99139014e-01 -6.99139014e-01  6.99139014e-01]
 [-2.33046338e-01  2.33046338e-01 -2.33046338e-01]
 [ 0.00000000e+00  4.66092676e-01 -4.66092676e-01]
 [ 2.33046338e-01  6.99139014e-01 -6.99139014e-01]
 [ 4.66092676e-01  9.32185352e-01 -9.32185352e-01]
 [-4.66092676e-01  0.00000000e+00  0.00000000e+00]
 [-6.99139014e-01 -2.33046338e-01  2.33046338e-01]
 [-9.32185352e-01 -4.66092676e-01  4.66092676e-01]
 [-4.66092676e-01  4.66092676e-01 -4.66092676e-01]
 [-2.33046338e-01  6.99139014e-01 -6.99139014e-01]
 [ 0.00000000e+00  9.32185352e-01 -9.32185352e-01]
 [ 2.33046338e-01  1.16523169e+00 -1.16523169e+00]
 [-6.99139014e-01  2.33046338e-01 -2.33046338e-01]
 [-9.32185352e-01  0.00000000e+00  0.00000000e+00]
 [-1.16523169e+00 -2.33046338e-01  2.33046338e-01]
 [-6.99139014e-01  6.99139014e-01 -6.99139014e-01]
 [-4.66092676e-01  9.32185352e-01 -9.32185352e-01]
 [-2.33046338e-01  1.16523169e+00 -1.16523169e+00]
 [ 0.00000000e+00  1.39827803e+00 -1.39827803e+00]
 [-9.32185352e-01  4.66092676e-01 -4.66092676e-01]
 [-1.16523169e+00  2.33046338e-01 -2.33046338e-01]
 [-1.39827803e+00  2.77555756e-17 -2.77555756e-17]
 [ 2.33046338e-01 -2.33046338e-01 -2.33046338e-01]
 [ 4.66092676e-01  0.00000000e+00 -4.66092676e-01]
 [ 6.99139014e-01  2.33046338e-01 -6.99139014e-01]
 [ 9.32185352e-01  4.66092676e-01 -9.32185352e-01]
 [ 4.66092676e-01 -4.66092676e-01  0.00000000e+00]
 [ 6.99139014e-01 -2.33046338e-01 -2.33046338e-01]
 [ 9.32185352e-01  0.00000000e+00 -4.66092676e-01]
 [ 1.16523169e+00  2.33046338e-01 -6.99139014e-01]
 [ 6.99139014e-01 -6.99139014e-01  2.33046338e-01]
 [ 9.32185352e-01 -4.66092676e-01  0.00000000e+00]
 [ 1.16523169e+00 -2.33046338e-01 -2.33046338e-01]
 [ 1.39827803e+00  0.00000000e+00 -4.66092676e-01]
 [ 9.32185352e-01 -9.32185352e-01  4.66092676e-01]
 [ 1.16523169e+00 -6.99139014e-01  2.33046338e-01]
 [ 1.39827803e+00 -4.66092676e-01  2.77555756e-17]
 [ 1.63132437e+00 -2.33046338e-01 -2.33046338e-01]
 [ 0.00000000e+00 -4.66092676e-01  0.00000000e+00]
 [ 2.33046338e-01 -6.99139014e-01  2.33046338e-01]
 [ 4.66092676e-01 -9.32185352e-01  4.66092676e-01]
 [ 6.99139014e-01 -1.16523169e+00  6.99139014e-01]
 [-2.33046338e-01 -6.99139014e-01  2.33046338e-01]
 [ 0.00000000e+00 -9.32185352e-01  4.66092676e-01]
 [ 2.33046338e-01 -1.16523169e+00  6.99139014e-01]
 [ 4.66092676e-01 -1.39827803e+00  9.32185352e-01]
 [-4.66092676e-01 -9.32185352e-01  4.66092676e-01]
 [-2.33046338e-01 -1.16523169e+00  6.99139014e-01]
 [ 0.00000000e+00 -1.39827803e+00  9.32185352e-01]
 [ 2.33046338e-01 -1.63132437e+00  1.16523169e+00]
 [ 0.00000000e+00  0.00000000e+00 -4.66092676e-01]
 [ 2.33046338e-01  2.33046338e-01 -6.99139014e-01]
 [ 4.66092676e-01  4.66092676e-01 -9.32185352e-01]
 [ 6.99139014e-01  6.99139014e-01 -1.16523169e+00]
 [-2.33046338e-01 -2.33046338e-01 -2.33046338e-01]
 [-4.66092676e-01 -4.66092676e-01  0.00000000e+00]
 [-6.99139014e-01 -6.99139014e-01  2.33046338e-01]
 [-2.33046338e-01  2.33046338e-01 -6.99139014e-01]
 [ 0.00000000e+00  4.66092676e-01 -9.32185352e-01]
 [ 2.33046338e-01  6.99139014e-01 -1.16523169e+00]
 [ 4.66092676e-01  9.32185352e-01 -1.39827803e+00]
 [-4.66092676e-01  0.00000000e+00 -4.66092676e-01]
 [-6.99139014e-01 -2.33046338e-01 -2.33046338e-01]
 [-9.32185352e-01 -4.66092676e-01 -2.77555756e-17]
 [-4.66092676e-01  4.66092676e-01 -9.32185352e-01]
 [-2.33046338e-01  6.99139014e-01 -1.16523169e+00]
 [ 0.00000000e+00  9.32185352e-01 -1.39827803e+00]
 [ 2.33046338e-01  1.16523169e+00 -1.63132437e+00]
 [-6.99139014e-01  2.33046338e-01 -6.99139014e-01]
 [-9.32185352e-01  0.00000000e+00 -4.66092676e-01]
 [-1.16523169e+00 -2.33046338e-01 -2.33046338e-01]
 [ 4.66092676e-01 -4.66092676e-01 -4.66092676e-01]
 [ 6.99139014e-01 -2.33046338e-01 -6.99139014e-01]
 [ 9.32185352e-01  0.00000000e+00 -9.32185352e-01]
 [ 1.16523169e+00  2.33046338e-01 -1.16523169e+00]
 [ 6.99139014e-01 -6.99139014e-01 -2.33046338e-01]
 [ 9.32185352e-01 -4.66092676e-01 -4.66092676e-01]
 [ 1.16523169e+00 -2.33046338e-01 -6.99139014e-01]
 [ 1.39827803e+00  0.00000000e+00 -9.32185352e-01]
 [ 9.32185352e-01 -9.32185352e-01  0.00000000e+00]
 [ 1.16523169e+00 -6.99139014e-01 -2.33046338e-01]
 [ 1.39827803e+00 -4.66092676e-01 -4.66092676e-01]
 [ 1.63132437e+00 -2.33046338e-01 -6.99139014e-01]
 [ 1.16523169e+00 -1.16523169e+00  2.33046338e-01]
 [ 1.39827803e+00 -9.32185352e-01  5.55111512e-17]
 [ 1.63132437e+00 -6.99139014e-01 -2.33046338e-01]
 [ 1.86437070e+00 -4.66092676e-01 -4.66092676e-01]
 [ 2.33046338e-01 -6.99139014e-01 -2.33046338e-01]
 [ 4.66092676e-01 -9.32185352e-01  0.00000000e+00]
 [ 6.99139014e-01 -1.16523169e+00  2.33046338e-01]
 [ 9.32185352e-01 -1.39827803e+00  4.66092676e-01]
 [ 0.00000000e+00 -9.32185352e-01  0.00000000e+00]
 [ 2.33046338e-01 -1.16523169e+00  2.33046338e-01]
 [ 4.66092676e-01 -1.39827803e+00  4.66092676e-01]
 [ 6.99139014e-01 -1.63132437e+00  6.99139014e-01]
 [-2.33046338e-01 -1.16523169e+00  2.33046338e-01]
 [ 0.00000000e+00 -1.39827803e+00  4.66092676e-01]
 [ 2.33046338e-01 -1.63132437e+00  6.99139014e-01]
 [ 4.66092676e-01 -1.86437070e+00  9.32185352e-01]
 [ 2.33046338e-01 -2.33046338e-01 -6.99139014e-01]
 [ 4.66092676e-01  0.00000000e+00 -9.32185352e-01]
 [ 6.99139014e-01  2.33046338e-01 -1.16523169e+00]
 [ 9.32185352e-01  4.66092676e-01 -1.39827803e+00]
 [ 0.00000000e+00 -4.66092676e-01 -4.66092676e-01]
 [-2.33046338e-01 -6.99139014e-01 -2.33046338e-01]
 [-4.66092676e-01 -9.32185352e-01 -2.77555756e-17]
 [ 0.00000000e+00  0.00000000e+00 -9.32185352e-01]
 [ 2.33046338e-01  2.33046338e-01 -1.16523169e+00]
 [ 4.66092676e-01  4.66092676e-01 -1.39827803e+00]
 [ 6.99139014e-01  6.99139014e-01 -1.63132437e+00]
 [-2.33046338e-01 -2.33046338e-01 -6.99139014e-01]
 [-4.66092676e-01 -4.66092676e-01 -4.66092676e-01]
 [-6.99139014e-01 -6.99139014e-01 -2.33046338e-01]
 [-2.33046338e-01  2.33046338e-01 -1.16523169e+00]
 [ 0.00000000e+00  4.66092676e-01 -1.39827803e+00]
 [ 2.33046338e-01  6.99139014e-01 -1.63132437e+00]
 [ 4.66092676e-01  9.32185352e-01 -1.86437070e+00]
 [-4.66092676e-01  0.00000000e+00 -9.32185352e-01]
 [-6.99139014e-01 -2.33046338e-01 -6.99139014e-01]
 [-9.32185352e-01 -4.66092676e-01 -4.66092676e-01]
 [ 6.99139014e-01 -6.99139014e-01 -6.99139014e-01]
 [ 9.32185352e-01 -4.66092676e-01 -9.32185352e-01]
 [ 1.16523169e+00 -2.33046338e-01 -1.16523169e+00]
 [ 1.39827803e+00  0.00000000e+00 -1.39827803e+00]
 [ 9.32185352e-01 -9.32185352e-01 -4.66092676e-01]
 [ 1.16523169e+00 -6.99139014e-01 -6.99139014e-01]
 [ 1.39827803e+00 -4.66092676e-01 -9.32185352e-01]
 [ 1.63132437e+00 -2.33046338e-01 -1.16523169e+00]
 [ 1.16523169e+00 -1.16523169e+00 -2.33046338e-01]
 [ 1.39827803e+00 -9.32185352e-01 -4.66092676e-01]
 [ 1.63132437e+00 -6.99139014e-01 -6.99139014e-01]
 [ 1.86437070e+00 -4.66092676e-01 -9.32185352e-01]
 [ 1.39827803e+00 -1.39827803e+00  0.00000000e+00]
 [ 1.63132437e+00 -1.16523169e+00 -2.33046338e-01]
 [ 1.86437070e+00 -9.32185352e-01 -4.66092676e-01]
 [ 2.09741704e+00 -6.99139014e-01 -6.99139014e-01]
 [ 4.66092676e-01 -9.32185352e-01 -4.66092676e-01]
 [ 6.99139014e-01 -1.16523169e+00 -2.33046338e-01]
 [ 9.32185352e-01 -1.39827803e+00 -5.55111512e-17]
 [ 1.16523169e+00 -1.63132437e+00  2.33046338e-01]
 [ 2.33046338e-01 -1.16523169e+00 -2.33046338e-01]
 [ 4.66092676e-01 -1.39827803e+00 -2.77555756e-17]
 [ 6.99139014e-01 -1.63132437e+00  2.33046338e-01]
 [ 9.32185352e-01 -1.86437070e+00  4.66092676e-01]
 [ 2.77555756e-17 -1.39827803e+00 -2.77555756e-17]
 [ 2.33046338e-01 -1.63132437e+00  2.33046338e-01]
 [ 4.66092676e-01 -1.86437070e+00  4.66092676e-01]
 [ 6.99139014e-01 -2.09741704e+00  6.99139014e-01]
 [ 4.66092676e-01 -4.66092676e-01 -9.32185352e-01]
 [ 6.99139014e-01 -2.33046338e-01 -1.16523169e+00]
 [ 9.32185352e-01 -5.55111512e-17 -1.39827803e+00]
 [ 1.16523169e+00  2.33046338e-01 -1.63132437e+00]
 [ 2.33046338e-01 -6.99139014e-01 -6.99139014e-01]
 [ 5.55111512e-17 -9.32185352e-01 -4.66092676e-01]
 [-2.33046338e-01 -1.16523169e+00 -2.33046338e-01]
 [ 2.33046338e-01 -2.33046338e-01 -1.16523169e+00]
 [ 4.66092676e-01 -2.77555756e-17 -1.39827803e+00]
 [ 6.99139014e-01  2.33046338e-01 -1.63132437e+00]
 [ 9.32185352e-01  4.66092676e-01 -1.86437070e+00]
 [ 2.77555756e-17 -4.66092676e-01 -9.32185352e-01]
 [-2.33046338e-01 -6.99139014e-01 -6.99139014e-01]
 [-4.66092676e-01 -9.32185352e-01 -4.66092676e-01]
 [ 2.77555756e-17 -2.77555756e-17 -1.39827803e+00]
 [ 2.33046338e-01  2.33046338e-01 -1.63132437e+00]
 [ 4.66092676e-01  4.66092676e-01 -1.86437070e+00]
 [ 6.99139014e-01  6.99139014e-01 -2.09741704e+00]
 [-2.33046338e-01 -2.33046338e-01 -1.16523169e+00]
 [-4.66092676e-01 -4.66092676e-01 -9.32185352e-01]
 [-6.99139014e-01 -6.99139014e-01 -6.99139014e-01]]
max_memory 699088.144384 (MB)  blocksize 37993920
Cholesky decomposition for j2c at kpt 0
Symmetry pattern (k - [0. 0. 0.])*a= 2n pi
    make_kpt for uniq_kptji_ids [0]
kpt = [0. 0. 0.]
adapted_ji_idx = [   0    2    5    9   14   20   27   35   44   54   65   77   90  104
  119  135  152  170  189  209  230  252  275  299  324  350  377  405
  434  464  495  527  560  594  629  665  702  740  779  819  860  902
  945  989 1034 1080 1127 1175 1224 1274 1325 1377 1430 1484 1539 1595
 1652 1710 1769 1829 1890 1952 2015 2079]
memory = 735.920128
int3c2e [1/1], AO [0:28], ncol = 3741
Symmetry pattern (k + [0. 0. 0.])*a= 2n pi
    make_kpt for [0]
Cholesky decomposition for j2c at kpt 1
Symmetry pattern (k - [-0.23304634 -0.23304634  0.23304634])*a= 2n pi
    make_kpt for uniq_kptji_ids [1]
kpt = [-0.23304634 -0.23304634  0.23304634]
adapted_ji_idx = [   1    4    8   19   26   34   53   64   76  103  118  134  169  188
  208  251  274  298  349  376  404  463  494  526  593  628  664  739
  778  818  901  944  988 1079 1126 1174 1273 1324 1376 1483 1538 1594
 1709 1768 1828 1951 2014 2078]
memory = 2105.458688
int3c2e [1/1], AO [0:28], ncol = 7396
Symmetry pattern (k + [-0.23304634 -0.23304634  0.23304634])*a= 2n pi
    make_kpt for [3]
kpt = [-0.69913901 -0.69913901  0.69913901]
adapted_ji_idx = [   6   32   74  132  206  296  402  524  662  816  986 1172 1374 1592
 1826 2076]
memory = 3538.69824
int3c2e [1/1], AO [0:28], ncol = 7396
Cholesky decomposition for j2c at kpt 2
Symmetry pattern (k - [-0.46609268 -0.46609268  0.46609268])*a= 2n pi
    make_kpt for uniq_kptji_ids [2]
kpt = [-0.46609268 -0.46609268  0.46609268]
adapted_ji_idx = [   3    7   25   33   63   75  117  133  187  207  273  297  375  403
  493  525  627  663  777  817  943  987 1125 1173 1323 1375 1537 1593
 1767 1827 2013 2077]
memory = 4056.571904
int3c2e [1/1], AO [0:28], ncol = 7396
Symmetry pattern (k + [-0.46609268 -0.46609268  0.46609268])*a= 2n pi
    make_kpt for [2]
Cholesky decomposition for j2c at kpt 4
Symmetry pattern (k - [-0.23304634  0.23304634 -0.23304634])*a= 2n pi
    make_kpt for uniq_kptji_ids [4]
kpt = [-0.23304634  0.23304634 -0.23304634]
adapted_ji_idx = [  10   16   23   31   40   50   61   73   86  100  115  131  226  248
  271  295  320  346  373  401  430  460  491  523  698  736  775  815
  856  898  941  985 1030 1076 1123 1171 1426 1480 1535 1591 1648 1706
 1765 1825 1886 1948 2011 2075]
memory = 4206.620672
int3c2e [1/1], AO [0:28], ncol = 7396
Symmetry pattern (k + [-0.23304634  0.23304634 -0.23304634])*a= 2n pi
    make_kpt for [18]
kpt = [-0.69913901  0.69913901 -0.69913901]
adapted_ji_idx = [  78   92  107  123  422  452  483  515 1022 1068 1115 1163 1878 1940
 2003 2067]
memory = 4636.348416
int3c2e [1/1], AO [0:28], ncol = 7396
Cholesky decomposition for j2c at kpt 5
Symmetry pattern (k - [ 0.          0.46609268 -0.46609268])*a= 2n pi
    make_kpt for uniq_kptji_ids [ 5 10]
kpt = [ 0.          0.46609268 -0.46609268]
adapted_ji_idx = [  11   17   24   41   51   62   87  101  116  227  249  272  321  347
  374  431  461  492  699  737  776  857  899  942 1031 1077 1124 1427
 1481 1536 1649 1707 1766 1887 1949 2012]
memory = 4646.486016
int3c2e [1/1], AO [0:28], ncol = 7396
kpt = [-0.93218535 -0.46609268  0.46609268]
adapted_ji_idx = [  28   70  128  292  398  520  812  982 1168 1588 1822 2072]
memory = 4714.283008
int3c2e [1/1], AO [0:28], ncol = 7396
Symmetry pattern (k + [ 0.          0.46609268 -0.46609268])*a= 2n pi
    make_kpt for [21 22]
kpt = [ 0.          1.39827803 -1.39827803]
adapted_ji_idx = [  81  425 1025 1881]
memory = 4736.110592
int3c2e [1/1], AO [0:28], ncol = 7396
kpt = [-0.93218535  0.46609268 -0.46609268]
adapted_ji_idx = [  91  106  122  451  482  514 1067 1114 1162 1939 2002 2066]
memory = 4746.625024
int3c2e [1/1], AO [0:28], ncol = 7396
Cholesky decomposition for j2c at kpt 6
Symmetry pattern (k - [ 0.23304634  0.69913901 -0.69913901])*a= 2n pi
    make_kpt for uniq_kptji_ids [6 9]
kpt = [ 0.23304634  0.69913901 -0.69913901]
adapted_ji_idx = [  12   18   42   52   88  102  228  250  322  348  432  462  700  738
  858  900 1032 1078 1428 1482 1650 1708 1888 1950]
memory = 4752.09728
int3c2e [1/1], AO [0:28], ncol = 7396
kpt = [-0.69913901 -0.23304634  0.23304634]
adapted_ji_idx = [  21   29   59   71  113  129  269  293  371  399  489  521  773  813
  939  983 1121 1169 1533 1589 1763 1823 2009 2073]
memory = 4785.532928
int3c2e [1/1], AO [0:28], ncol = 7396
Symmetry pattern (k + [ 0.23304634  0.69913901 -0.69913901])*a= 2n pi
    make_kpt for [20 23]
kpt = [-0.23304634  1.16523169 -1.16523169]
adapted_ji_idx = [  80   94  424  454 1024 1070 1880 1942]
memory = 4789.952512
int3c2e [1/1], AO [0:28], ncol = 7396
kpt = [-1.16523169  0.23304634 -0.23304634]
adapted_ji_idx = [ 105  121  481  513 1113 1161 2001 2065]
memory = 4790.202368
int3c2e [1/1], AO [0:28], ncol = 7396
Cholesky decomposition for j2c at kpt 7
Symmetry pattern (k - [ 0.46609268  0.93218535 -0.93218535])*a= 2n pi
    make_kpt for uniq_kptji_ids [7 8]
kpt = [ 0.46609268  0.93218535 -0.93218535]
adapted_ji_idx = [  13   43   89  229  323  433  701  859 1033 1429 1651 1889]
memory = 4794.785792
int3c2e [1/1], AO [0:28], ncol = 7396
kpt = [-0.46609268  0.          0.        ]
adapted_ji_idx = [  15   22   30   49   60   72   99  114  130  247  270  294  345  372
  400  459  490  522  735  774  814  897  940  984 1075 1122 1170 1479
 1534 1590 1705 1764 1824 1947 2010 2074]
memory = 4795.65824
int3c2e [1/1], AO [0:28], ncol = 7396
Symmetry pattern (k + [ 0.46609268  0.93218535 -0.93218535])*a= 2n pi
    make_kpt for [19 24]
kpt = [-0.46609268  0.93218535 -0.93218535]
adapted_ji_idx = [  79   93  108  423  453  484 1023 1069 1116 1879 1941 2004]
memory = 4802.53952
int3c2e [1/1], AO [0:28], ncol = 7396
kpt = [-1.39827803e+00  2.77555756e-17 -2.77555756e-17]
adapted_ji_idx = [ 120  512 1160 2064]
memory = 4803.403776
int3c2e [1/1], AO [0:28], ncol = 7396
Cholesky decomposition for j2c at kpt 11
Symmetry pattern (k - [-0.46609268  0.46609268 -0.46609268])*a= 2n pi
    make_kpt for uniq_kptji_ids [11]
kpt = [-0.46609268  0.46609268 -0.46609268]
adapted_ji_idx = [  36   46   57   69   82   96  111  127  316  342  369  397  426  456
  487  519  852  894  937  981 1026 1072 1119 1167 1644 1702 1761 1821
 1882 1944 2007 2071]
memory = 4804.28032
int3c2e [1/1], AO [0:28], ncol = 7396
Symmetry pattern (k + [-0.46609268  0.46609268 -0.46609268])*a= 2n pi
    make_kpt for [11]
Cholesky decomposition for j2c at kpt 12
Symmetry pattern (k - [-0.23304634  0.69913901 -0.69913901])*a= 2n pi
    make_kpt for uniq_kptji_ids [12 17]
kpt = [-0.23304634  0.69913901 -0.69913901]
adapted_ji_idx = [  37   47   58   83   97  112  317  343  370  427  457  488  853  895
  938 1027 1073 1120 1645 1703 1762 1883 1945 2008]
memory = 4809.50272
int3c2e [1/1], AO [0:28], ncol = 7396
kpt = [-1.16523169 -0.23304634  0.23304634]
adapted_ji_idx = [  66  124  394  516  978 1164 1818 2068]
memory = 4809.09312
int3c2e [1/1], AO [0:28], ncol = 7396
Symmetry pattern (k + [-0.23304634  0.69913901 -0.69913901])*a= 2n pi
    make_kpt for [14 15]
kpt = [ 0.23304634  1.16523169 -1.16523169]
adapted_ji_idx = [  39   85  319  429  855 1029 1647 1885]
memory = 4808.953856
int3c2e [1/1], AO [0:28], ncol = 7396
kpt = [-0.69913901  0.23304634 -0.23304634]
adapted_ji_idx = [  45   56   68   95  110  126  341  368  396  455  486  518  893  936
  980 1071 1118 1166 1701 1760 1820 1943 2006 2070]
memory = 4808.982528
int3c2e [1/1], AO [0:28], ncol = 7396
Cholesky decomposition for j2c at kpt 13
Symmetry pattern (k - [ 0.          0.93218535 -0.93218535])*a= 2n pi
    make_kpt for uniq_kptji_ids [13 16]
kpt = [ 0.          0.93218535 -0.93218535]
adapted_ji_idx = [  38   48   84   98  318  344  428  458  854  896 1028 1074 1646 1704
 1884 1946]
memory = 4810.616832
int3c2e [1/1], AO [0:28], ncol = 7396
kpt = [-0.93218535  0.          0.        ]
adapted_ji_idx = [  55   67  109  125  367  395  485  517  935  979 1117 1165 1759 1819
 2005 2069]
memory = 4810.371072
int3c2e [1/1], AO [0:28], ncol = 7396
Symmetry pattern (k + [ 0.          0.93218535 -0.93218535])*a= 2n pi
    make_kpt for [13 16]
Cholesky decomposition for j2c at kpt 25
Symmetry pattern (k - [ 0.23304634 -0.23304634 -0.23304634])*a= 2n pi
    make_kpt for uniq_kptji_ids [25]
kpt = [ 0.23304634 -0.23304634 -0.23304634]
adapted_ji_idx = [ 136  154  173  193  214  236  259  283  308  334  361  389  418  448
  479  511  544  578  613  649  686  724  763  803  844  886  929  973
 1018 1064 1111 1159 1208 1258 1309 1361 1414 1468 1523 1579 1636 1694
 1753 1813 1874 1936 1999 2063]
memory = 4810.498048
int3c2e [1/1], AO [0:28], ncol = 7396
Symmetry pattern (k + [ 0.23304634 -0.23304634 -0.23304634])*a= 2n pi
    make_kpt for [123]
kpt = [ 0.69913901 -0.69913901 -0.69913901]
adapted_ji_idx = [1176 1226 1277 1329 1382 1436 1491 1547 1604 1662 1721 1781 1842 1904
 1967 2031]
memory = 5253.165056
int3c2e [1/1], AO [0:28], ncol = 7396
Cholesky decomposition for j2c at kpt 26
Symmetry pattern (k - [ 0.46609268  0.         -0.46609268])*a= 2n pi
    make_kpt for uniq_kptji_ids [26 49]
kpt = [ 0.46609268  0.         -0.46609268]
adapted_ji_idx = [ 137  155  174  215  237  260  309  335  362  419  449  480  545  579
  614  687  725  764  845  887  930 1019 1065 1112 1209 1259 1310 1415
 1469 1524 1637 1695 1754 1875 1937 2000]
memory = 5253.914624
int3c2e [1/1], AO [0:28], ncol = 7396
kpt = [-0.46609268 -0.93218535  0.46609268]
adapted_ji_idx = [ 190  280  386  508  646  800  970 1156 1358 1576 1810 2060]
memory = 5257.084928
int3c2e [1/1], AO [0:28], ncol = 7396
Symmetry pattern (k + [ 0.46609268  0.         -0.46609268])*a= 2n pi
    make_kpt for [126 139]
kpt = [ 1.39827803  0.         -1.39827803]
adapted_ji_idx = [1179 1385 1607 1845]
memory = 5256.884224
int3c2e [1/1], AO [0:28], ncol = 7396
kpt = [ 0.46609268 -0.93218535 -0.46609268]
adapted_ji_idx = [1225 1276 1328 1435 1490 1546 1661 1720 1780 1903 1966 2030]
memory = 5257.465856
int3c2e [1/1], AO [0:28], ncol = 7396
Cholesky decomposition for j2c at kpt 27
Symmetry pattern (k - [ 0.69913901  0.23304634 -0.69913901])*a= 2n pi
    make_kpt for uniq_kptji_ids [27 45]
kpt = [ 0.69913901  0.23304634 -0.69913901]
adapted_ji_idx = [ 138  156  216  238  310  336  420  450  546  580  688  726  846  888
 1020 1066 1210 1260 1416 1470 1638 1696 1876 1938]
memory = 5257.322496
int3c2e [1/1], AO [0:28], ncol = 7396
kpt = [-0.23304634 -0.69913901  0.23304634]
adapted_ji_idx = [ 171  191  257  281  359  387  477  509  611  647  761  801  927  971
 1109 1157 1307 1359 1521 1577 1751 1811 1997 2061]
memory = 5259.198464
int3c2e [1/1], AO [0:28], ncol = 7396
Symmetry pattern (k + [ 0.69913901  0.23304634 -0.69913901])*a= 2n pi
    make_kpt for [125 143]
kpt = [ 1.16523169 -0.23304634 -1.16523169]
adapted_ji_idx = [1178 1228 1384 1438 1606 1664 1844 1906]
memory = 5259.292672
int3c2e [1/1], AO [0:28], ncol = 7396
kpt = [ 0.23304634 -1.16523169 -0.23304634]
adapted_ji_idx = [1275 1327 1489 1545 1719 1779 1965 2029]
memory = 5260.070912
int3c2e [1/1], AO [0:28], ncol = 7396
Cholesky decomposition for j2c at kpt 28
Symmetry pattern (k - [ 0.93218535  0.46609268 -0.93218535])*a= 2n pi
    make_kpt for uniq_kptji_ids [28 41]
kpt = [ 0.93218535  0.46609268 -0.93218535]
adapted_ji_idx = [ 139  217  311  421  547  689  847 1021 1211 1417 1639 1877]
memory = 5260.070912
int3c2e [1/1], AO [0:28], ncol = 7396
kpt = [ 0.         -0.46609268  0.        ]
adapted_ji_idx = [ 153  172  192  235  258  282  333  360  388  447  478  510  577  612
  648  723  762  802  885  928  972 1063 1110 1158 1257 1308 1360 1467
 1522 1578 1693 1752 1812 1935 1998 2062]
memory = 5259.886592
int3c2e [1/1], AO [0:28], ncol = 7396
Symmetry pattern (k + [ 0.93218535  0.46609268 -0.93218535])*a= 2n pi
    make_kpt for [124 147]
kpt = [ 0.93218535 -0.46609268 -0.93218535]
adapted_ji_idx = [1177 1227 1278 1383 1437 1492 1605 1663 1722 1843 1905 1968]
memory = 5261.697024
int3c2e [1/1], AO [0:28], ncol = 7396
kpt = [ 2.77555756e-17 -1.39827803e+00 -2.77555756e-17]
adapted_ji_idx = [1326 1544 1778 2028]
memory = 5262.065664
int3c2e [1/1], AO [0:28], ncol = 7396
Cholesky decomposition for j2c at kpt 29
Symmetry pattern (k - [ 0.46609268 -0.46609268  0.        ])*a= 2n pi
    make_kpt for uniq_kptji_ids [29 67]
kpt = [ 0.46609268 -0.46609268  0.        ]
adapted_ji_idx = [ 140  158  177  197  218  240  263  287  312  338  365  393  548  582
  617  653  690  728  767  807  848  890  933  977 1212 1262 1313 1365
 1418 1472 1527 1583 1640 1698 1757 1817]
memory = 5262.061568
int3c2e [1/1], AO [0:28], ncol = 7396
kpt = [-0.46609268  0.46609268 -0.93218535]
adapted_ji_idx = [ 406  436  467  499 1006 1052 1099 1147 1862 1924 1987 2051]
memory = 5263.798272
int3c2e [1/1], AO [0:28], ncol = 7396
Symmetry pattern (k + [ 0.46609268 -0.46609268  0.        ])*a= 2n pi
    make_kpt for [135 151]
kpt = [ 1.39827803 -1.39827803  0.        ]
adapted_ji_idx = [1188 1238 1289 1341]
memory = 5263.630336
int3c2e [1/1], AO [0:28], ncol = 7396
kpt = [ 0.46609268 -0.46609268 -0.93218535]
adapted_ji_idx = [1378 1432 1487 1543 1600 1658 1717 1777 1838 1900 1963 2027]
memory = 5264.109568
int3c2e [1/1], AO [0:28], ncol = 7396
Cholesky decomposition for j2c at kpt 30
Symmetry pattern (k - [ 0.69913901 -0.23304634 -0.23304634])*a= 2n pi
    make_kpt for uniq_kptji_ids [30 50 68 73]
kpt = [ 0.69913901 -0.23304634 -0.23304634]
adapted_ji_idx = [ 141  159  178  219  241  264  313  339  366  549  583  618  691  729
  768  849  891  934 1213 1263 1314 1419 1473 1528 1641 1699 1758]
memory = 5263.81056
int3c2e [1/1], AO [0:28], ncol = 7396
kpt = [-0.23304634 -1.16523169  0.69913901]
adapted_ji_idx = [ 194  284  390  650  804  974 1362 1580 1814]
memory = 5266.321408
int3c2e [1/1], AO [0:28], ncol = 7396
kpt = [-0.23304634  0.69913901 -1.16523169]
adapted_ji_idx = [ 407  437  468 1007 1053 1100 1863 1925 1988]
memory = 5265.973248
int3c2e [1/1], AO [0:28], ncol = 7396
kpt = [-1.16523169 -0.23304634 -0.23304634]
adapted_ji_idx = [ 496 1144 2048]
memory = 5265.727488
int3c2e [1/1], AO [0:28], ncol = 7396
Symmetry pattern (k + [ 0.69913901 -0.23304634 -0.23304634])*a= 2n pi
    make_kpt for [138 142 154 155]
kpt = [ 2.09741704 -0.69913901 -0.69913901]
adapted_ji_idx = [1191]
memory = 5265.145856
int3c2e [1/1], AO [0:28], ncol = 7396
kpt = [ 1.16523169 -1.63132437  0.23304634]
adapted_ji_idx = [1237 1288 1340]
memory = 5265.457152
int3c2e [1/1], AO [0:28], ncol = 7396
kpt = [ 1.16523169  0.23304634 -1.63132437]
adapted_ji_idx = [1381 1603 1841]
memory = 5265.657856
int3c2e [1/1], AO [0:28], ncol = 7396
kpt = [ 0.23304634 -0.69913901 -0.69913901]
adapted_ji_idx = [1431 1486 1542 1657 1716 1776 1899 1962 2026]
memory = 5265.657856
int3c2e [1/1], AO [0:28], ncol = 7396
Cholesky decomposition for j2c at kpt 31
Symmetry pattern (k - [ 0.93218535  0.         -0.46609268])*a= 2n pi
    make_kpt for uniq_kptji_ids [31 46 69 72]
kpt = [ 0.93218535  0.         -0.46609268]
adapted_ji_idx = [ 142  160  220  242  314  340  550  584  692  730  850  892 1214 1264
 1420 1474 1642 1700]
memory = 5265.506304
int3c2e [1/1], AO [0:28], ncol = 7396
kpt = [ 0.         -0.93218535  0.46609268]
adapted_ji_idx = [ 175  195  261  285  363  391  615  651  765  805  931  975 1311 1363
 1525 1581 1755 1815]
memory = 5266.202624
int3c2e [1/1], AO [0:28], ncol = 7396
kpt = [ 0.          0.93218535 -1.39827803]
adapted_ji_idx = [ 408  438 1008 1054 1864 1926]
memory = 5266.481152
int3c2e [1/1], AO [0:28], ncol = 7396
kpt = [-0.93218535  0.         -0.46609268]
adapted_ji_idx = [ 465  497 1097 1145 1985 2049]
memory = 5266.481152
int3c2e [1/1], AO [0:28], ncol = 7396
Symmetry pattern (k + [ 0.93218535  0.         -0.46609268])*a= 2n pi
    make_kpt for [137 146 153 156]
kpt = [ 1.8643707  -0.93218535 -0.46609268]
adapted_ji_idx = [1190 1240]
memory = 5266.096128
int3c2e [1/1], AO [0:28], ncol = 7396
kpt = [ 0.93218535 -1.8643707   0.46609268]
adapted_ji_idx = [1287 1339]
memory = 5266.223104
int3c2e [1/1], AO [0:28], ncol = 7396
kpt = [ 9.32185352e-01 -5.55111512e-17 -1.39827803e+00]
adapted_ji_idx = [1380 1434 1602 1660 1840 1902]
memory = 5266.223104
int3c2e [1/1], AO [0:28], ncol = 7396
kpt = [ 5.55111512e-17 -9.32185352e-01 -4.66092676e-01]
adapted_ji_idx = [1485 1541 1715 1775 1961 2025]
memory = 5266.427904
int3c2e [1/1], AO [0:28], ncol = 7396
Cholesky decomposition for j2c at kpt 32
Symmetry pattern (k - [ 1.16523169  0.23304634 -0.69913901])*a= 2n pi
    make_kpt for uniq_kptji_ids [32 42 70 71]
kpt = [ 1.16523169  0.23304634 -0.69913901]
adapted_ji_idx = [ 143  221  315  551  693  851 1215 1421 1643]
memory = 5266.702336
int3c2e [1/1], AO [0:28], ncol = 7396
kpt = [ 0.23304634 -0.69913901  0.23304634]
adapted_ji_idx = [ 157  176  196  239  262  286  337  364  392  581  616  652  727  766
  806  889  932  976 1261 1312 1364 1471 1526 1582 1697 1756 1816]
memory = 5266.501632
int3c2e [1/1], AO [0:28], ncol = 7396
kpt = [ 0.23304634  1.16523169 -1.63132437]
adapted_ji_idx = [ 409 1009 1865]
memory = 5268.656128
int3c2e [1/1], AO [0:28], ncol = 7396
kpt = [-0.69913901  0.23304634 -0.69913901]
adapted_ji_idx = [ 435  466  498 1051 1098 1146 1923 1986 2050]
memory = 5268.729856
int3c2e [1/1], AO [0:28], ncol = 7396
Symmetry pattern (k + [ 1.16523169  0.23304634 -0.69913901])*a= 2n pi
    make_kpt for [136 150 152 157]
kpt = [ 1.63132437 -1.16523169 -0.23304634]
adapted_ji_idx = [1189 1239 1290]
memory = 5268.529152
int3c2e [1/1], AO [0:28], ncol = 7396
kpt = [ 0.69913901 -2.09741704  0.69913901]
adapted_ji_idx = [1338]
memory = 5268.529152
int3c2e [1/1], AO [0:28], ncol = 7396
kpt = [ 0.69913901 -0.23304634 -1.16523169]
adapted_ji_idx = [1379 1433 1488 1601 1659 1718 1839 1901 1964]
memory = 5268.529152
int3c2e [1/1], AO [0:28], ncol = 7396
kpt = [-0.23304634 -1.16523169 -0.23304634]
adapted_ji_idx = [1540 1774 2024]
memory = 5268.680704
int3c2e [1/1], AO [0:28], ncol = 7396
Cholesky decomposition for j2c at kpt 33
Symmetry pattern (k - [ 0.69913901 -0.69913901  0.23304634])*a= 2n pi
    make_kpt for uniq_kptji_ids [33 60]
kpt = [ 0.69913901 -0.69913901  0.23304634]
adapted_ji_idx = [ 144  162  181  201  222  244  267  291  552  586  621  657  694  732
  771  811 1216 1266 1317 1369 1422 1476 1531 1587]
memory = 5268.881408
int3c2e [1/1], AO [0:28], ncol = 7396
kpt = [-0.23304634  0.23304634 -0.69913901]
adapted_ji_idx = [ 300  326  353  381  410  440  471  503  836  878  921  965 1010 1056
 1103 1151 1628 1686 1745 1805 1866 1928 1991 2055]
memory = 5268.840448
int3c2e [1/1], AO [0:28], ncol = 7396
Symmetry pattern (k + [ 0.69913901 -0.69913901  0.23304634])*a= 2n pi
    make_kpt for [131 158]
kpt = [ 1.16523169 -1.16523169 -0.23304634]
adapted_ji_idx = [1184 1234 1285 1337 1390 1444 1499 1555]
memory = 5268.91008
int3c2e [1/1], AO [0:28], ncol = 7396
kpt = [ 0.23304634 -0.23304634 -1.16523169]
adapted_ji_idx = [1596 1654 1713 1773 1834 1896 1959 2023]
memory = 5275.447296
int3c2e [1/1], AO [0:28], ncol = 7396
Cholesky decomposition for j2c at kpt 34
Symmetry pattern (k - [ 0.93218535 -0.46609268  0.        ])*a= 2n pi
    make_kpt for uniq_kptji_ids [34 51 61 66]
kpt = [ 0.93218535 -0.46609268  0.        ]
adapted_ji_idx = [ 145  163  182  223  245  268  553  587  622  695  733  772 1217 1267
 1318 1423 1477 1532]
memory = 5275.60704
int3c2e [1/1], AO [0:28], ncol = 7396
kpt = [ 0.         -1.39827803  0.93218535]
adapted_ji_idx = [ 198  288  654  808 1366 1584]
memory = 5276.033024
int3c2e [1/1], AO [0:28], ncol = 7396
kpt = [ 0.          0.46609268 -0.93218535]
adapted_ji_idx = [ 301  327  354  411  441  472  837  879  922 1011 1057 1104 1629 1687
 1746 1867 1929 1992]
memory = 5275.705344
int3c2e [1/1], AO [0:28], ncol = 7396
kpt = [-9.32185352e-01 -4.66092676e-01 -2.77555756e-17]
adapted_ji_idx = [ 378  500  962 1148 1802 2052]
memory = 5276.22144
int3c2e [1/1], AO [0:28], ncol = 7396
Symmetry pattern (k + [ 0.93218535 -0.46609268  0.        ])*a= 2n pi
    make_kpt for [134 141 161 162]
kpt = [ 1.8643707  -0.46609268 -0.93218535]
adapted_ji_idx = [1187 1393]
memory = 5276.041216
int3c2e [1/1], AO [0:28], ncol = 7396
kpt = [ 9.32185352e-01 -1.39827803e+00 -5.55111512e-17]
adapted_ji_idx = [1233 1284 1336 1443 1498 1554]
memory = 5276.114944
int3c2e [1/1], AO [0:28], ncol = 7396
kpt = [ 0.93218535  0.46609268 -1.8643707 ]
adapted_ji_idx = [1599 1837]
memory = 5276.192768
int3c2e [1/1], AO [0:28], ncol = 7396
kpt = [ 2.77555756e-17 -4.66092676e-01 -9.32185352e-01]
adapted_ji_idx = [1653 1712 1772 1895 1958 2022]
memory = 5276.192768
int3c2e [1/1], AO [0:28], ncol = 7396
Cholesky decomposition for j2c at kpt 35
Symmetry pattern (k - [ 1.16523169 -0.23304634 -0.23304634])*a= 2n pi
    make_kpt for uniq_kptji_ids [35 47 62 65]
kpt = [ 1.16523169 -0.23304634 -0.23304634]
adapted_ji_idx = [ 146  164  224  246  554  588  696  734 1218 1268 1424 1478]
memory = 5276.192768
int3c2e [1/1], AO [0:28], ncol = 7396
kpt = [ 0.23304634 -1.16523169  0.69913901]
adapted_ji_idx = [ 179  199  265  289  619  655  769  809 1315 1367 1529 1585]
memory = 5275.967488
int3c2e [1/1], AO [0:28], ncol = 7396
kpt = [ 0.23304634  0.69913901 -1.16523169]
adapted_ji_idx = [ 302  328  412  442  838  880 1012 1058 1630 1688 1868 1930]
memory = 5276.049408
int3c2e [1/1], AO [0:28], ncol = 7396
kpt = [-0.69913901 -0.23304634 -0.23304634]
adapted_ji_idx = [ 351  379  469  501  919  963 1101 1149 1743 1803 1989 2053]
memory = 5276.114944
int3c2e [1/1], AO [0:28], ncol = 7396
Symmetry pattern (k + [ 1.16523169 -0.23304634 -0.23304634])*a= 2n pi
    make_kpt for [133 145 160 163]
kpt = [ 1.63132437 -0.69913901 -0.69913901]
adapted_ji_idx = [1186 1236 1392 1446]
memory = 5275.758592
int3c2e [1/1], AO [0:28], ncol = 7396
kpt = [ 0.69913901 -1.63132437  0.23304634]
adapted_ji_idx = [1283 1335 1497 1553]
memory = 5275.8528
int3c2e [1/1], AO [0:28], ncol = 7396
kpt = [ 0.69913901  0.23304634 -1.63132437]
adapted_ji_idx = [1598 1656 1836 1898]
memory = 5276.069888
int3c2e [1/1], AO [0:28], ncol = 7396
kpt = [-0.23304634 -0.69913901 -0.69913901]
adapted_ji_idx = [1711 1771 1957 2021]
memory = 5276.069888
int3c2e [1/1], AO [0:28], ncol = 7396
Cholesky decomposition for j2c at kpt 36
Symmetry pattern (k - [ 1.39827803  0.         -0.46609268])*a= 2n pi
    make_kpt for uniq_kptji_ids [36 43 63 64]
kpt = [ 1.39827803  0.         -0.46609268]
adapted_ji_idx = [ 147  225  555  697 1219 1425]
memory = 5276.069888
int3c2e [1/1], AO [0:28], ncol = 7396
kpt = [ 0.46609268 -0.93218535  0.46609268]
adapted_ji_idx = [ 161  180  200  243  266  290  585  620  656  731  770  810 1265 1316
 1368 1475 1530 1586]
memory = 5276.069888
int3c2e [1/1], AO [0:28], ncol = 7396
kpt = [ 0.46609268  0.93218535 -1.39827803]
adapted_ji_idx = [ 303  413  839 1013 1631 1869]
memory = 5276.643328
int3c2e [1/1], AO [0:28], ncol = 7396
kpt = [-0.46609268  0.         -0.46609268]
adapted_ji_idx = [ 325  352  380  439  470  502  877  920  964 1055 1102 1150 1685 1744
 1804 1927 1990 2054]
memory = 5276.659712
int3c2e [1/1], AO [0:28], ncol = 7396
Symmetry pattern (k + [ 1.39827803  0.         -0.46609268])*a= 2n pi
    make_kpt for [132 149 159 164]
kpt = [ 1.39827803 -0.93218535 -0.46609268]
adapted_ji_idx = [1185 1235 1286 1391 1445 1500]
memory = 5276.164096
int3c2e [1/1], AO [0:28], ncol = 7396
kpt = [ 0.46609268 -1.8643707   0.46609268]
adapted_ji_idx = [1334 1552]
memory = 5276.020736
int3c2e [1/1], AO [0:28], ncol = 7396
kpt = [ 4.66092676e-01 -2.77555756e-17 -1.39827803e+00]
adapted_ji_idx = [1597 1655 1714 1835 1897 1960]
memory = 5276.020736
int3c2e [1/1], AO [0:28], ncol = 7396
kpt = [-0.46609268 -0.93218535 -0.46609268]
adapted_ji_idx = [1770 2020]
memory = 5276.24192
int3c2e [1/1], AO [0:28], ncol = 7396
Cholesky decomposition for j2c at kpt 37
Symmetry pattern (k - [ 0.93218535 -0.93218535  0.46609268])*a= 2n pi
    make_kpt for uniq_kptji_ids [37 53]
kpt = [ 0.93218535 -0.93218535  0.46609268]
adapted_ji_idx = [ 148  166  185  205  556  590  625  661 1220 1270 1321 1373]
memory = 5276.110848
int3c2e [1/1], AO [0:28], ncol = 7396
kpt = [ 0.          0.         -0.46609268]
adapted_ji_idx = [ 210  232  255  279  304  330  357  385  414  444  475  507  682  720
  759  799  840  882  925  969 1014 1060 1107 1155 1410 1464 1519 1575
 1632 1690 1749 1809 1870 1932 1995 2059]
memory = 5276.40576
int3c2e [1/1], AO [0:28], ncol = 7396
Symmetry pattern (k + [ 0.93218535 -0.93218535  0.46609268])*a= 2n pi
    make_kpt for [127 165]
kpt = [ 0.93218535 -0.93218535 -0.46609268]
adapted_ji_idx = [1180 1230 1281 1333 1386 1440 1495 1551 1608 1666 1725 1785]
memory = 5278.920704
int3c2e [1/1], AO [0:28], ncol = 7396
kpt = [ 2.77555756e-17 -2.77555756e-17 -1.39827803e+00]
adapted_ji_idx = [1830 1892 1955 2019]
memory = 5278.826496
int3c2e [1/1], AO [0:28], ncol = 7396
Cholesky decomposition for j2c at kpt 38
Symmetry pattern (k - [ 1.16523169 -0.69913901  0.23304634])*a= 2n pi
    make_kpt for uniq_kptji_ids [38 52 54 59]
kpt = [ 1.16523169 -0.69913901  0.23304634]
adapted_ji_idx = [ 149  167  186  557  591  626 1221 1271 1322]
memory = 5278.896128
int3c2e [1/1], AO [0:28], ncol = 7396
kpt = [ 0.23304634 -1.63132437  1.16523169]
adapted_ji_idx = [ 202  658 1370]
memory = 5278.580736
int3c2e [1/1], AO [0:28], ncol = 7396
kpt = [ 0.23304634  0.23304634 -0.69913901]
adapted_ji_idx = [ 211  233  256  305  331  358  415  445  476  683  721  760  841  883
  926 1015 1061 1108 1411 1465 1520 1633 1691 1750 1871 1933 1996]
memory = 5278.69952
int3c2e [1/1], AO [0:28], ncol = 7396
kpt = [-0.69913901 -0.69913901  0.23304634]
adapted_ji_idx = [ 276  382  504  796  966 1152 1572 1806 2056]
memory = 5278.826496
int3c2e [1/1], AO [0:28], ncol = 7396
Symmetry pattern (k + [ 1.16523169 -0.69913901  0.23304634])*a= 2n pi
    make_kpt for [130 140 168 169]
kpt = [ 1.63132437 -0.23304634 -1.16523169]
adapted_ji_idx = [1183 1389 1611]
memory = 5278.543872
int3c2e [1/1], AO [0:28], ncol = 7396
kpt = [ 0.69913901 -1.16523169 -0.23304634]
adapted_ji_idx = [1229 1280 1332 1439 1494 1550 1665 1724 1784]
memory = 5278.57664
int3c2e [1/1], AO [0:28], ncol = 7396
kpt = [ 0.69913901  0.69913901 -2.09741704]
adapted_ji_idx = [1833]
memory = 5278.793728
int3c2e [1/1], AO [0:28], ncol = 7396
kpt = [-0.23304634 -0.23304634 -1.16523169]
adapted_ji_idx = [1891 1954 2018]
memory = 5278.814208
int3c2e [1/1], AO [0:28], ncol = 7396
Cholesky decomposition for j2c at kpt 39
Symmetry pattern (k - [ 1.39827803e+00 -4.66092676e-01  2.77555756e-17])*a= 2n pi
    make_kpt for uniq_kptji_ids [39 48 55 58]
kpt = [ 1.39827803e+00 -4.66092676e-01  2.77555756e-17]
adapted_ji_idx = [ 150  168  558  592 1222 1272]
memory = 5278.84288
int3c2e [1/1], AO [0:28], ncol = 7396
kpt = [ 0.46609268 -1.39827803  0.93218535]
adapted_ji_idx = [ 183  203  623  659 1319 1371]
memory = 5278.867456
int3c2e [1/1], AO [0:28], ncol = 7396
kpt = [ 0.46609268  0.46609268 -0.93218535]
adapted_ji_idx = [ 212  234  306  332  416  446  684  722  842  884 1016 1062 1412 1466
 1634 1692 1872 1934]
memory = 5278.88384
int3c2e [1/1], AO [0:28], ncol = 7396
kpt = [-0.46609268 -0.46609268  0.        ]
adapted_ji_idx = [ 253  277  355  383  473  505  757  797  923  967 1105 1153 1517 1573
 1747 1807 1993 2057]
memory = 5278.86336
int3c2e [1/1], AO [0:28], ncol = 7396
Symmetry pattern (k + [ 1.39827803e+00 -4.66092676e-01  2.77555756e-17])*a= 2n pi
    make_kpt for [129 144 167 170]
kpt = [ 1.39827803 -0.46609268 -0.93218535]
adapted_ji_idx = [1182 1232 1388 1442 1610 1668]
memory = 5278.400512
int3c2e [1/1], AO [0:28], ncol = 7396
kpt = [ 4.66092676e-01 -1.39827803e+00 -2.77555756e-17]
adapted_ji_idx = [1279 1331 1493 1549 1723 1783]
memory = 5279.133696
int3c2e [1/1], AO [0:28], ncol = 7396
kpt = [ 0.46609268  0.46609268 -1.8643707 ]
adapted_ji_idx = [1832 1894]
memory = 5279.133696
int3c2e [1/1], AO [0:28], ncol = 7396
kpt = [-0.46609268 -0.46609268 -0.93218535]
adapted_ji_idx = [1953 2017]
memory = 5279.133696
int3c2e [1/1], AO [0:28], ncol = 7396
Cholesky decomposition for j2c at kpt 40
Symmetry pattern (k - [ 1.63132437 -0.23304634 -0.23304634])*a= 2n pi
    make_kpt for uniq_kptji_ids [40 44 56 57]
kpt = [ 1.63132437 -0.23304634 -0.23304634]
adapted_ji_idx = [ 151  559 1223]
memory = 5279.133696
int3c2e [1/1], AO [0:28], ncol = 7396
kpt = [ 0.69913901 -1.16523169  0.69913901]
adapted_ji_idx = [ 165  184  204  589  624  660 1269 1320 1372]
memory = 5279.133696
int3c2e [1/1], AO [0:28], ncol = 7396
kpt = [ 0.69913901  0.69913901 -1.16523169]
adapted_ji_idx = [ 213  307  417  685  843 1017 1413 1635 1873]
memory = 5278.6176
int3c2e [1/1], AO [0:28], ncol = 7396
kpt = [-0.23304634 -0.23304634 -0.23304634]
adapted_ji_idx = [ 231  254  278  329  356  384  443  474  506  719  758  798  881  924
  968 1059 1106 1154 1463 1518 1574 1689 1748 1808 1931 1994 2058]
memory = 5278.45376
int3c2e [1/1], AO [0:28], ncol = 7396
Symmetry pattern (k + [ 1.63132437 -0.23304634 -0.23304634])*a= 2n pi
    make_kpt for [128 148 166 171]
kpt = [ 1.16523169 -0.69913901 -0.69913901]
adapted_ji_idx = [1181 1231 1282 1387 1441 1496 1609 1667 1726]
memory = 5278.978048
int3c2e [1/1], AO [0:28], ncol = 7396
kpt = [ 0.23304634 -1.63132437  0.23304634]
adapted_ji_idx = [1330 1548 1782]
memory = 5278.707712
int3c2e [1/1], AO [0:28], ncol = 7396
kpt = [ 0.23304634  0.23304634 -1.63132437]
adapted_ji_idx = [1831 1893 1956]
memory = 5278.785536
int3c2e [1/1], AO [0:28], ncol = 7396
kpt = [-0.69913901 -0.69913901 -0.69913901]
adapted_ji_idx = [2016]
memory = 5278.846976
int3c2e [1/1], AO [0:28], ncol = 7396
Cholesky decomposition for j2c at kpt 74
Symmetry pattern (k - [ 0.46609268 -0.46609268 -0.46609268])*a= 2n pi
    make_kpt for uniq_kptji_ids [74]
kpt = [ 0.46609268 -0.46609268 -0.46609268]
adapted_ji_idx = [ 528  562  597  633  670  708  747  787  828  870  913  957 1002 1048
 1095 1143 1192 1242 1293 1345 1398 1452 1507 1563 1620 1678 1737 1797
 1858 1920 1983 2047]
memory = 5278.846976
int3c2e [1/1], AO [0:28], ncol = 7396
Symmetry pattern (k + [ 0.46609268 -0.46609268 -0.46609268])*a= 2n pi
    make_kpt for [74]
Cholesky decomposition for j2c at kpt 75
Symmetry pattern (k - [ 0.69913901 -0.23304634 -0.69913901])*a= 2n pi
    make_kpt for uniq_kptji_ids [75 98]
kpt = [ 0.69913901 -0.23304634 -0.69913901]
adapted_ji_idx = [ 529  563  598  671  709  748  829  871  914 1003 1049 1096 1193 1243
 1294 1399 1453 1508 1621 1679 1738 1859 1921 1984]
memory = 5280.612352
int3c2e [1/1], AO [0:28], ncol = 7396
kpt = [-0.23304634 -1.16523169  0.23304634]
adapted_ji_idx = [ 630  784  954 1140 1342 1560 1794 2044]
memory = 5280.423936
int3c2e [1/1], AO [0:28], ncol = 7396
Symmetry pattern (k + [ 0.69913901 -0.23304634 -0.69913901])*a= 2n pi
    make_kpt for [77 90]
kpt = [ 1.16523169  0.23304634 -1.16523169]
adapted_ji_idx = [ 531  673  831 1005 1195 1401 1623 1861]
memory = 5280.813056
int3c2e [1/1], AO [0:28], ncol = 7396
kpt = [ 0.23304634 -0.69913901 -0.23304634]
adapted_ji_idx = [ 561  596  632  707  746  786  869  912  956 1047 1094 1142 1241 1292
 1344 1451 1506 1562 1677 1736 1796 1919 1982 2046]
memory = 5280.755712
int3c2e [1/1], AO [0:28], ncol = 7396
Cholesky decomposition for j2c at kpt 76
Symmetry pattern (k - [ 0.93218535  0.         -0.93218535])*a= 2n pi
    make_kpt for uniq_kptji_ids [76 94]
kpt = [ 0.93218535  0.         -0.93218535]
adapted_ji_idx = [ 530  564  672  710  830  872 1004 1050 1194 1244 1400 1454 1622 1680
 1860 1922]
memory = 5280.374784
int3c2e [1/1], AO [0:28], ncol = 7396
kpt = [ 0.         -0.93218535  0.        ]
adapted_ji_idx = [ 595  631  745  785  911  955 1093 1141 1291 1343 1505 1561 1735 1795
 1981 2045]
memory = 5280.198656
int3c2e [1/1], AO [0:28], ncol = 7396
Symmetry pattern (k + [ 0.93218535  0.         -0.93218535])*a= 2n pi
    make_kpt for [76 94]
Cholesky decomposition for j2c at kpt 78
Symmetry pattern (k - [ 0.69913901 -0.69913901 -0.23304634])*a= 2n pi
    make_kpt for uniq_kptji_ids [ 78 116]
kpt = [ 0.69913901 -0.69913901 -0.23304634]
adapted_ji_idx = [ 532  566  601  637  674  712  751  791  832  874  917  961 1196 1246
 1297 1349 1402 1456 1511 1567 1624 1682 1741 1801]
memory = 5279.535104
int3c2e [1/1], AO [0:28], ncol = 7396
kpt = [-0.23304634  0.23304634 -1.16523169]
adapted_ji_idx = [ 990 1036 1083 1131 1846 1908 1971 2035]
memory = 5280.538624
int3c2e [1/1], AO [0:28], ncol = 7396
Symmetry pattern (k + [ 0.69913901 -0.69913901 -0.23304634])*a= 2n pi
    make_kpt for [ 86 102]
kpt = [ 1.16523169 -1.16523169  0.23304634]
adapted_ji_idx = [ 540  574  609  645 1204 1254 1305 1357]
memory = 5280.550912
int3c2e [1/1], AO [0:28], ncol = 7396
kpt = [ 0.23304634 -0.23304634 -0.69913901]
adapted_ji_idx = [ 666  704  743  783  824  866  909  953  998 1044 1091 1139 1394 1448
 1503 1559 1616 1674 1733 1793 1854 1916 1979 2043]
memory = 5280.714752
int3c2e [1/1], AO [0:28], ncol = 7396
Cholesky decomposition for j2c at kpt 79
Symmetry pattern (k - [ 0.93218535 -0.46609268 -0.46609268])*a= 2n pi
    make_kpt for uniq_kptji_ids [ 79  99 117 122]
kpt = [ 0.93218535 -0.46609268 -0.46609268]
adapted_ji_idx = [ 533  567  602  675  713  752  833  875  918 1197 1247 1298 1403 1457
 1512 1625 1683 1742]
memory = 5280.620544
int3c2e [1/1], AO [0:28], ncol = 7396
kpt = [ 0.         -1.39827803  0.46609268]
adapted_ji_idx = [ 634  788  958 1346 1564 1798]
memory = 5280.0512
int3c2e [1/1], AO [0:28], ncol = 7396
kpt = [ 0.          0.46609268 -1.39827803]
adapted_ji_idx = [ 991 1037 1084 1847 1909 1972]
memory = 5279.985664
int3c2e [1/1], AO [0:28], ncol = 7396
kpt = [-0.93218535 -0.46609268 -0.46609268]
adapted_ji_idx = [1128 2032]
memory = 5280.198656
int3c2e [1/1], AO [0:28], ncol = 7396
Symmetry pattern (k + [ 0.93218535 -0.46609268 -0.46609268])*a= 2n pi
    make_kpt for [ 89  93 105 106]
kpt = [ 1.8643707  -0.46609268 -0.46609268]
adapted_ji_idx = [ 543 1207]
memory = 5280.198656
int3c2e [1/1], AO [0:28], ncol = 7396
kpt = [ 0.93218535 -1.39827803  0.46609268]
adapted_ji_idx = [ 573  608  644 1253 1304 1356]
memory = 5280.198656
int3c2e [1/1], AO [0:28], ncol = 7396
kpt = [ 0.93218535  0.46609268 -1.39827803]
adapted_ji_idx = [ 669  827 1001 1397 1619 1857]
memory = 5280.198656
int3c2e [1/1], AO [0:28], ncol = 7396
kpt = [ 0.         -0.46609268 -0.46609268]
adapted_ji_idx = [ 703  742  782  865  908  952 1043 1090 1138 1447 1502 1558 1673 1732
 1792 1915 1978 2042]
memory = 5280.079872
int3c2e [1/1], AO [0:28], ncol = 7396
Cholesky decomposition for j2c at kpt 80
Symmetry pattern (k - [ 1.16523169 -0.23304634 -0.69913901])*a= 2n pi
    make_kpt for uniq_kptji_ids [ 80  95 118 121]
kpt = [ 1.16523169 -0.23304634 -0.69913901]
adapted_ji_idx = [ 534  568  676  714  834  876 1198 1248 1404 1458 1626 1684]
memory = 5279.940608
int3c2e [1/1], AO [0:28], ncol = 7396
kpt = [ 0.23304634 -1.16523169  0.23304634]
adapted_ji_idx = [ 599  635  749  789  915  959 1295 1347 1509 1565 1739 1799]
memory = 5279.997952
int3c2e [1/1], AO [0:28], ncol = 7396
kpt = [ 0.23304634  0.69913901 -1.63132437]
adapted_ji_idx = [ 992 1038 1848 1910]
memory = 5279.973376
int3c2e [1/1], AO [0:28], ncol = 7396
kpt = [-0.69913901 -0.23304634 -0.69913901]
adapted_ji_idx = [1081 1129 1969 2033]
memory = 5279.973376
int3c2e [1/1], AO [0:28], ncol = 7396
Symmetry pattern (k + [ 1.16523169 -0.23304634 -0.69913901])*a= 2n pi
    make_kpt for [ 88  97 104 107]
kpt = [ 1.63132437 -0.69913901 -0.23304634]
adapted_ji_idx = [ 542  576 1206 1256]
memory = 5279.973376
int3c2e [1/1], AO [0:28], ncol = 7396
kpt = [ 0.69913901 -1.63132437  0.69913901]
adapted_ji_idx = [ 607  643 1303 1355]
memory = 5280.1536
int3c2e [1/1], AO [0:28], ncol = 7396
kpt = [ 0.69913901  0.23304634 -1.16523169]
adapted_ji_idx = [ 668  706  826  868 1000 1046 1396 1450 1618 1676 1856 1918]
memory = 5280.1536
int3c2e [1/1], AO [0:28], ncol = 7396
kpt = [-0.23304634 -0.69913901 -0.23304634]
adapted_ji_idx = [ 741  781  907  951 1089 1137 1501 1557 1731 1791 1977 2041]
memory = 5280.075776
int3c2e [1/1], AO [0:28], ncol = 7396
Cholesky decomposition for j2c at kpt 81
Symmetry pattern (k - [ 1.39827803  0.         -0.93218535])*a= 2n pi
    make_kpt for uniq_kptji_ids [ 81  91 119 120]
kpt = [ 1.39827803  0.         -0.93218535]
adapted_ji_idx = [ 535  677  835 1199 1405 1627]
memory = 5280.256
int3c2e [1/1], AO [0:28], ncol = 7396
kpt = [ 0.46609268 -0.93218535  0.        ]
adapted_ji_idx = [ 565  600  636  711  750  790  873  916  960 1245 1296 1348 1455 1510
 1566 1681 1740 1800]
memory = 5280.350208
int3c2e [1/1], AO [0:28], ncol = 7396
kpt = [ 0.46609268  0.93218535 -1.8643707 ]
adapted_ji_idx = [ 993 1849]
memory = 5280.702464
int3c2e [1/1], AO [0:28], ncol = 7396
kpt = [-0.46609268  0.         -0.93218535]
adapted_ji_idx = [1035 1082 1130 1907 1970 2034]
memory = 5280.739328
int3c2e [1/1], AO [0:28], ncol = 7396
Symmetry pattern (k + [ 1.39827803  0.         -0.93218535])*a= 2n pi
    make_kpt for [ 87 101 103 108]
kpt = [ 1.39827803e+00 -9.32185352e-01  5.55111512e-17]
adapted_ji_idx = [ 541  575  610 1205 1255 1306]
memory = 5280.804864
int3c2e [1/1], AO [0:28], ncol = 7396
kpt = [ 0.46609268 -1.8643707   0.93218535]
adapted_ji_idx = [ 642 1354]
memory = 5280.825344
int3c2e [1/1], AO [0:28], ncol = 7396
kpt = [ 0.46609268  0.         -0.93218535]
adapted_ji_idx = [ 667  705  744  825  867  910  999 1045 1092 1395 1449 1504 1617 1675
 1734 1855 1917 1980]
memory = 5280.825344
int3c2e [1/1], AO [0:28], ncol = 7396
kpt = [-4.66092676e-01 -9.32185352e-01 -2.77555756e-17]
adapted_ji_idx = [ 780  950 1136 1556 1790 2040]
memory = 5280.567296
int3c2e [1/1], AO [0:28], ncol = 7396
Cholesky decomposition for j2c at kpt 82
Symmetry pattern (k - [ 0.93218535 -0.93218535  0.        ])*a= 2n pi
    make_kpt for uniq_kptji_ids [ 82 109]
kpt = [ 0.93218535 -0.93218535  0.        ]
adapted_ji_idx = [ 536  570  605  641  678  716  755  795 1200 1250 1301 1353 1406 1460
 1515 1571]
memory = 5280.407552
int3c2e [1/1], AO [0:28], ncol = 7396
kpt = [ 0.          0.         -0.93218535]
adapted_ji_idx = [ 820  862  905  949  994 1040 1087 1135 1612 1670 1729 1789 1850 1912
 1975 2039]
memory = 5280.940032
int3c2e [1/1], AO [0:28], ncol = 7396
Symmetry pattern (k + [ 0.93218535 -0.93218535  0.        ])*a= 2n pi
    make_kpt for [ 82 109]
Cholesky decomposition for j2c at kpt 83
Symmetry pattern (k - [ 1.16523169 -0.69913901 -0.23304634])*a= 2n pi
    make_kpt for uniq_kptji_ids [ 83 100 110 115]
kpt = [ 1.16523169 -0.69913901 -0.23304634]
adapted_ji_idx = [ 537  571  606  679  717  756 1201 1251 1302 1407 1461 1516]
memory = 5280.07168
int3c2e [1/1], AO [0:28], ncol = 7396
kpt = [ 0.23304634 -1.63132437  0.69913901]
adapted_ji_idx = [ 638  792 1350 1568]
memory = 5280.784384
int3c2e [1/1], AO [0:28], ncol = 7396
kpt = [ 0.23304634  0.23304634 -1.16523169]
adapted_ji_idx = [ 821  863  906  995 1041 1088 1613 1671 1730 1851 1913 1976]
memory = 5280.956416
int3c2e [1/1], AO [0:28], ncol = 7396
kpt = [-0.69913901 -0.69913901 -0.23304634]
adapted_ji_idx = [ 946 1132 1786 2036]
memory = 5280.509952
int3c2e [1/1], AO [0:28], ncol = 7396
Symmetry pattern (k + [ 1.16523169 -0.69913901 -0.23304634])*a= 2n pi
    make_kpt for [ 85  92 112 113]
kpt = [ 1.63132437 -0.23304634 -0.69913901]
adapted_ji_idx = [ 539  681 1203 1409]
memory = 5280.956416
int3c2e [1/1], AO [0:28], ncol = 7396
kpt = [ 0.69913901 -1.16523169  0.23304634]
adapted_ji_idx = [ 569  604  640  715  754  794 1249 1300 1352 1459 1514 1570]
memory = 5280.874496
int3c2e [1/1], AO [0:28], ncol = 7396
kpt = [ 0.69913901  0.69913901 -1.63132437]
adapted_ji_idx = [ 823  997 1615 1853]
memory = 5280.52224
int3c2e [1/1], AO [0:28], ncol = 7396
kpt = [-0.23304634 -0.23304634 -0.69913901]
adapted_ji_idx = [ 861  904  948 1039 1086 1134 1669 1728 1788 1911 1974 2038]
memory = 5280.52224
int3c2e [1/1], AO [0:28], ncol = 7396
Cholesky decomposition for j2c at kpt 84
Symmetry pattern (k - [ 1.39827803 -0.46609268 -0.46609268])*a= 2n pi
    make_kpt for uniq_kptji_ids [ 84  96 111 114]
kpt = [ 1.39827803 -0.46609268 -0.46609268]
adapted_ji_idx = [ 538  572  680  718 1202 1252 1408 1462]
memory = 5280.223232
int3c2e [1/1], AO [0:28], ncol = 7396
kpt = [ 0.46609268 -1.39827803  0.46609268]
adapted_ji_idx = [ 603  639  753  793 1299 1351 1513 1569]
memory = 5280.956416
int3c2e [1/1], AO [0:28], ncol = 7396
kpt = [ 0.46609268  0.46609268 -1.39827803]
adapted_ji_idx = [ 822  864  996 1042 1614 1672 1852 1914]
memory = 5280.956416
int3c2e [1/1], AO [0:28], ncol = 7396
kpt = [-0.46609268 -0.46609268 -0.46609268]
adapted_ji_idx = [ 903  947 1085 1133 1727 1787 1973 2037]
memory = 5280.956416
int3c2e [1/1], AO [0:28], ncol = 7396
Symmetry pattern (k + [ 1.39827803 -0.46609268 -0.46609268])*a= 2n pi
    make_kpt for [ 84  96 111 114]
    CPU time for j3c  43918.80 sec, wall time   1972.12 sec
    CPU time for Init get_k_kpts  43920.83 sec, wall time   1972.19 sec
    CPU time for get_k_kpts: make_kpt ki>=kj (0,*)      3.09 sec, wall time      0.17 sec
    CPU time for get_k_kpts: make_kpt ki>=kj (1,*)      6.16 sec, wall time      0.20 sec
    CPU time for get_k_kpts: make_kpt ki>=kj (2,*)     11.44 sec, wall time      0.36 sec
    CPU time for get_k_kpts: make_kpt ki>=kj (3,*)     12.78 sec, wall time      0.40 sec
    CPU time for get_k_kpts: make_kpt ki>=kj (4,*)     14.58 sec, wall time      0.46 sec
    CPU time for get_k_kpts: make_kpt ki>=kj (5,*)     16.04 sec, wall time      0.50 sec
    CPU time for get_k_kpts: make_kpt ki>=kj (6,*)     20.73 sec, wall time      0.65 sec
    CPU time for get_k_kpts: make_kpt ki>=kj (7,*)     23.97 sec, wall time      0.75 sec
    CPU time for get_k_kpts: make_kpt ki>=kj (8,*)     23.45 sec, wall time      0.74 sec
    CPU time for get_k_kpts: make_kpt ki>=kj (9,*)     27.57 sec, wall time      0.87 sec
    CPU time for get_k_kpts: make_kpt ki>=kj (10,*)     28.76 sec, wall time      0.90 sec
    CPU time for get_k_kpts: make_kpt ki>=kj (11,*)     33.21 sec, wall time      1.05 sec
    CPU time for get_k_kpts: make_kpt ki>=kj (12,*)     36.55 sec, wall time      1.17 sec
    CPU time for get_k_kpts: make_kpt ki>=kj (13,*)     49.56 sec, wall time      1.59 sec
    CPU time for get_k_kpts: make_kpt ki>=kj (14,*)     48.88 sec, wall time      1.56 sec
    CPU time for get_k_kpts: make_kpt ki>=kj (15,*)     44.21 sec, wall time      1.39 sec
    CPU time for get_k_kpts: make_kpt ki>=kj (16,*)     44.57 sec, wall time      1.40 sec
    CPU time for get_k_kpts: make_kpt ki>=kj (17,*)     49.12 sec, wall time      1.54 sec
    CPU time for get_k_kpts: make_kpt ki>=kj (18,*)     49.05 sec, wall time      1.54 sec
    CPU time for get_k_kpts: make_kpt ki>=kj (19,*)     53.11 sec, wall time      1.67 sec
    CPU time for get_k_kpts: make_kpt ki>=kj (20,*)     56.08 sec, wall time      1.76 sec
    CPU time for get_k_kpts: make_kpt ki>=kj (21,*)     57.48 sec, wall time      1.82 sec
    CPU time for get_k_kpts: make_kpt ki>=kj (22,*)     60.90 sec, wall time      1.91 sec
    CPU time for get_k_kpts: make_kpt ki>=kj (23,*)     61.87 sec, wall time      1.95 sec
    CPU time for get_k_kpts: make_kpt ki>=kj (24,*)     65.66 sec, wall time      2.06 sec
    CPU time for get_k_kpts: make_kpt ki>=kj (25,*)     66.88 sec, wall time      2.10 sec
    CPU time for get_k_kpts: make_kpt ki>=kj (26,*)     68.77 sec, wall time      2.16 sec
    CPU time for get_k_kpts: make_kpt ki>=kj (27,*)     71.19 sec, wall time      2.24 sec
    CPU time for get_k_kpts: make_kpt ki>=kj (28,*)     74.33 sec, wall time      2.33 sec
    CPU time for get_k_kpts: make_kpt ki>=kj (29,*)     76.74 sec, wall time      2.41 sec
    CPU time for get_k_kpts: make_kpt ki>=kj (30,*)     77.35 sec, wall time      2.44 sec
    CPU time for get_k_kpts: make_kpt ki>=kj (31,*)     83.23 sec, wall time      2.61 sec
    CPU time for get_k_kpts: make_kpt ki>=kj (32,*)     85.50 sec, wall time      2.70 sec
    CPU time for get_k_kpts: make_kpt ki>=kj (33,*)     85.77 sec, wall time      2.70 sec
    CPU time for get_k_kpts: make_kpt ki>=kj (34,*)     88.73 sec, wall time      2.80 sec
    CPU time for get_k_kpts: make_kpt ki>=kj (35,*)     93.15 sec, wall time      2.93 sec
    CPU time for get_k_kpts: make_kpt ki>=kj (36,*)     94.63 sec, wall time      2.97 sec
    CPU time for get_k_kpts: make_kpt ki>=kj (37,*)     97.61 sec, wall time      3.06 sec
    CPU time for get_k_kpts: make_kpt ki>=kj (38,*)    100.08 sec, wall time      3.15 sec
    CPU time for get_k_kpts: make_kpt ki>=kj (39,*)    102.78 sec, wall time      3.23 sec
    CPU time for get_k_kpts: make_kpt ki>=kj (40,*)    104.07 sec, wall time      3.27 sec
    CPU time for get_k_kpts: make_kpt ki>=kj (41,*)    105.59 sec, wall time      3.32 sec
    CPU time for get_k_kpts: make_kpt ki>=kj (42,*)    111.07 sec, wall time      3.49 sec
    CPU time for get_k_kpts: make_kpt ki>=kj (43,*)    110.77 sec, wall time      3.49 sec
    CPU time for get_k_kpts: make_kpt ki>=kj (44,*)    114.61 sec, wall time      3.61 sec
    CPU time for get_k_kpts: make_kpt ki>=kj (45,*)    118.14 sec, wall time      3.71 sec
    CPU time for get_k_kpts: make_kpt ki>=kj (46,*)    119.65 sec, wall time      3.76 sec
    CPU time for get_k_kpts: make_kpt ki>=kj (47,*)    121.66 sec, wall time      3.82 sec
    CPU time for get_k_kpts: make_kpt ki>=kj (48,*)    124.53 sec, wall time      3.91 sec
    CPU time for get_k_kpts: make_kpt ki>=kj (49,*)    125.33 sec, wall time      3.94 sec
    CPU time for get_k_kpts: make_kpt ki>=kj (50,*)    127.91 sec, wall time      4.02 sec
    CPU time for get_k_kpts: make_kpt ki>=kj (51,*)    129.67 sec, wall time      4.07 sec
    CPU time for get_k_kpts: make_kpt ki>=kj (52,*)    130.67 sec, wall time      4.12 sec
    CPU time for get_k_kpts: make_kpt ki>=kj (53,*)    136.71 sec, wall time      4.30 sec
    CPU time for get_k_kpts: make_kpt ki>=kj (54,*)    139.95 sec, wall time      4.40 sec
    CPU time for get_k_kpts: make_kpt ki>=kj (55,*)    159.22 sec, wall time      5.06 sec
    CPU time for get_k_kpts: make_kpt ki>=kj (56,*)    150.13 sec, wall time      4.75 sec
    CPU time for get_k_kpts: make_kpt ki>=kj (57,*)    146.84 sec, wall time      4.61 sec
    CPU time for get_k_kpts: make_kpt ki>=kj (58,*)    148.90 sec, wall time      4.67 sec
    CPU time for get_k_kpts: make_kpt ki>=kj (59,*)    151.45 sec, wall time      4.76 sec
    CPU time for get_k_kpts: make_kpt ki>=kj (60,*)    152.62 sec, wall time      4.79 sec
    CPU time for get_k_kpts: make_kpt ki>=kj (61,*)    154.05 sec, wall time      4.84 sec
    CPU time for get_k_kpts: make_kpt ki>=kj (62,*)    157.16 sec, wall time      4.93 sec
    CPU time for get_k_kpts: make_kpt ki>=kj (63,*)    160.69 sec, wall time      5.05 sec
Monkhorst pack size [4 4 4] ew_eta 1.567785923794447 ew_cut 4.486233713020537
Ewald components = 0, -0.88465892227202, 0.799631562152575
    CPU time for get_j pass 1     80.71 sec, wall time      2.81 sec
    CPU time for get_j pass 2      5.50 sec, wall time      1.69 sec
    CPU time for vj and vk  49378.72 sec, wall time   2145.78 sec
Ewald components = 3.0606179073546e-132, -242.469443607053, 213.698400957796
E1 = (-51.630664276316516+8.697876403493399e-16j)  E_coul = (3.433841707278699+1.2457482961858446e-16j)
init E= -76.9678652182948
cond(S) = [3.69179249e+07 3.98432948e+07 1.49232033e+07 3.98432948e+07
 3.98432948e+07 6.65718678e+08 8.34863241e+07 3.04673475e+07
 1.49232033e+07 8.34863239e+07 7.95844919e+08 8.34863239e+07
 3.98432948e+07 3.04673475e+07 8.34863242e+07 6.65718683e+08
 3.98432946e+07 6.65718676e+08 8.34863241e+07 3.04673475e+07
 6.65718676e+08 3.98432948e+07 3.04673475e+07 8.34863244e+07
 8.34863242e+07 3.04673475e+07 8.34863240e+07 3.58864368e+06
 3.04673474e+07 8.34863238e+07 3.58864368e+06 8.34863238e+07
 1.49232034e+07 8.34863237e+07 7.95844946e+08 8.34863236e+07
 8.34863241e+07 3.04673475e+07 8.34863240e+07 3.58864368e+06
 7.95844969e+08 8.34863244e+07 1.49232033e+07 8.34863245e+07
 8.34863240e+07 3.58864368e+06 8.34863239e+07 3.04673475e+07
 3.98432946e+07 3.04673475e+07 8.34863241e+07 6.65718675e+08
 3.04673474e+07 8.34863238e+07 3.58864368e+06 8.34863239e+07
 8.34863240e+07 3.58864368e+06 8.34863238e+07 3.04673475e+07
 6.65718683e+08 8.34863244e+07 3.04673475e+07 3.98432948e+07]
    CPU time for initialize scf  50275.36 sec, wall time   2175.87 sec
HOMO = 0.634387976025  LUMO = 0.815486620332
     k-point                  mo_energy
   0 ( 0.000  0.000  0.000)   [-10.61975483 -10.60432894  -1.63358964   0.63420012   0.63420012
   0.63438798] [ 0.90234785  0.90234785  0.90266227  1.15504447  1.4777734   1.78629966
  1.78629966  1.82418787  1.82418787  1.82421218  2.09239125  2.64627992
  2.64635869  2.64635869  3.38997105  3.38998374  3.38998375  3.56334174
  3.56334174  3.7684704   3.7684704   3.76848598  3.92707016  3.92711758
  3.92711758  4.59759875  4.59762582  4.59762588  4.66604265  4.93457528
  4.93457529  4.93458057  5.10099022  5.10099022  5.1234731   5.12347311
  5.12347566  5.15112559  5.32931977  5.32931977  5.42560201  5.42560201
  5.42563119  5.5732073   6.4260439   6.42608229  6.42608231  6.46388323
  6.46392236  6.46392238  7.38964633  8.41708206  8.41711068  8.41711151
 17.35120786 17.3512368  17.3512368  17.84198113 19.65121854 19.65124971
 19.65124981 19.81130879 42.2651271  42.2651271  42.31292681 42.31292681
 42.47138196 42.47140055 42.47140055 42.78522555 42.7852448  42.78524481
 82.64770481 82.64771857 82.64771857 84.37438755 84.37440127 84.37440128
 87.2826022  90.47691945]
   1 ( 0.000  0.000  0.250)   [-10.61506149 -10.60441745  -1.29807128   0.20314754   0.5381144
   0.53822155] [ 0.97124029  1.0094899   1.00972838  1.28663172  1.55311349  1.61884625
  1.61889149  1.75092639  2.29136877  2.29137373  2.45074729  2.4507793
  2.45460944  2.4977865   3.13190793  3.13193472  3.48193512  3.54448996
  3.54449754  3.70974947  3.70979242  3.82169467  3.88693697  4.1030943
  4.19409999  4.19410324  4.40660389  4.40661718  4.59047857  4.65772544
  4.65774058  5.06176498  5.13745271  5.15841717  5.15844697  5.1660728
  5.38211239  5.48587821  5.48589647  5.75911997  5.75913521  5.77117928
  6.0166533   6.01665467  6.22817918  6.2282111   6.39473684  7.02290293
  7.02293034  7.33941931  7.52450546  7.52451424  7.57327816  8.37318445
 17.77361247 18.63292359 18.63295247 19.13763395 19.20564167 19.20566855
 19.72880272 21.63053244 42.25893855 42.25896015 42.30708592 42.35683202
 42.35683718 42.41215981 42.41217055 42.48288208 42.57815118 42.57815619
 83.09580891 83.59395752 83.59397023 84.07086801 84.07087979 84.13673102
 89.69241069 94.00590905]
   2 ( 0.000  0.000  0.500)   [-10.6090946  -10.60525699  -0.67974289  -0.3719464    0.47985298
   0.47987698] [ 0.96878762  1.03679826  1.03705212  1.36310351  1.62891836  1.7093487
  1.78330361  1.78332889  2.08565559  2.08572305  2.55496613  2.8650825
  2.86509309  2.94874817  3.0599544   3.05995624  3.09849802  3.09855214
  3.31173133  3.70843012  3.70845954  3.77891236  3.77891277  3.89440924
  3.95139374  4.11347711  4.25038128  4.25039068  4.42726908  4.85999553
  5.04658838  5.17538609  5.1754211   5.31944307  5.38686009  5.53429206
  5.53432419  5.66130257  5.67551362  5.67552791  5.69073044  5.6907615
  6.18922916  6.18924629  6.34429775  6.41366419  6.41366506  6.72359549
  6.7236031   7.25259121  7.32454246  7.57043691  7.57046979  9.10061646
 17.27851577 18.1486063  18.14863377 18.42706103 18.67694858 19.47694186
 19.47696836 22.96123522 42.31419781 42.3142194  42.37156881 42.37158092
 42.41943189 42.44452897 42.44727906 42.44728454 42.46689198 42.4668958
 82.62798163 83.263493   83.26350538 83.63485351 84.22315776 84.22316949
 88.26074213 96.27949389]
   3 ( 0.000  0.000  0.750)   [-10.61506149 -10.60441745  -1.29807128   0.20314754   0.5381144
   0.53822155] [ 0.97124029  1.0094899   1.00972838  1.28663172  1.55311349  1.61884625
  1.61889149  1.75092639  2.29136877  2.29137373  2.45074729  2.4507793
  2.45460944  2.4977865   3.13190794  3.13193472  3.48193512  3.54448996
  3.54449755  3.70974947  3.70979241  3.82169467  3.88693697  4.10309426
  4.19410003  4.19410324  4.40660391  4.40661718  4.59047857  4.65772544
  4.65774058  5.06176498  5.13745271  5.15841717  5.15844697  5.1660728
  5.38211238  5.48587821  5.48589647  5.75911997  5.75913521  5.77117929
  6.0166533   6.01665468  6.22817918  6.22821109  6.39473685  7.02290291
  7.0229303   7.33941931  7.52450622  7.52451396  7.57327814  8.37318401
 17.77361246 18.63292363 18.63295244 19.13763396 19.20564169 19.20566855
 19.72880273 21.63053225 42.25893855 42.25896015 42.30708592 42.35683202
 42.35683718 42.41215981 42.41217055 42.48288208 42.57815118 42.57815619
 83.09580891 83.59395752 83.59397023 84.07086801 84.07087979 84.13673102
 89.69241069 94.00590901]
   4 (-0.000  0.250  0.000)   [-10.61506149 -10.60441745  -1.29807128   0.20314754   0.5381144
   0.53822155] [ 0.97124029  1.0094899   1.00972838  1.28663172  1.55311349  1.61884625
  1.61889149  1.75092638  2.29136877  2.29137372  2.45074729  2.4507793
  2.4546094   2.49778649  3.13190793  3.13193471  3.48193512  3.5444899
  3.54449754  3.7097495   3.70979237  3.82169467  3.88693694  4.1030942
  4.19410003  4.19410303  4.40660391  4.40661708  4.59047857  4.65772545
  4.65774054  5.06176497  5.13745271  5.15841718  5.15844695  5.16607277
  5.38211233  5.48587821  5.48589646  5.75911998  5.75913522  5.77117927
  6.01665328  6.01665467  6.2281792   6.22821109  6.39473684  7.02290308
  7.02293024  7.3394193   7.52450648  7.52451025  7.57327772  8.3731833
 17.77361245 18.63292374 18.63295205 19.13763395 19.20564168 19.20566849
 19.72880259 21.63053205 42.25893855 42.25896015 42.30708592 42.35683202
 42.35683718 42.41215981 42.41217055 42.48288208 42.57815114 42.5781562
 83.09580891 83.59395754 83.59397018 84.07086801 84.07087978 84.13673102
 89.69241067 94.00590891]
   5 ( 0.000  0.250  0.250)   [-10.61378677 -10.6044204   -1.19571037   0.32150842   0.39905212
   0.39916214] [ 0.81548662  1.07519803  1.19255152  1.19259317  1.51898778  1.63556606
  1.90461516  2.03730002  2.03731901  2.13905032  2.37761877  2.37762144
  2.57097592  2.82636157  2.83383809  3.32742932  3.32746261  3.52876415
  3.5287768   3.55449284  3.62513351  3.8623157   4.0057105   4.10559069
  4.10560179  4.46301912  4.46303044  4.47856943  4.68786675  4.70089085
  4.7009041   4.73363046  4.73529731  5.07388734  5.33845871  5.34677354
  5.35283604  5.35284773  5.66752978  5.73562727  5.73563337  5.82438234
  6.05646382  6.21247305  6.2124935   6.23483312  6.92421127  7.12824183
  7.12826733  7.14994135  7.50710724  7.50714457  7.76542369  8.13429488
 17.79562607 17.79564615 18.2804371  19.01190378 19.69067997 19.69070082
 20.23021971 20.39645138 42.26268742 42.2667882  42.28273937 42.35515004
 42.3551622  42.36303695 42.43484306 42.49610726 42.49611971 42.58971598
 82.97996033 82.97996969 83.3838324  84.15055078 84.43286266 84.43287164
 90.85908859 91.4272085 ]
   6 ( 0.000  0.250  0.500)   [-10.60838356 -10.60508399  -0.64368497  -0.13498848   0.2045133
   0.35501007] [ 0.89127212  1.1559731   1.24402972  1.2454203   1.56763373  1.70634997
  1.84105935  1.96989326  2.17016713  2.38820599  2.50103999  2.56364278
  2.76509979  2.76513431  2.81284817  3.02866398  3.1002897   3.19062897
  3.35974613  3.46225468  3.6716086   3.69198551  3.88256014  4.04595907
  4.14795514  4.18179152  4.34224896  4.49563091  4.52284199  4.60671623
  4.74519419  4.99714683  5.03040703  5.24371106  5.2619372   5.33452889
  5.46008156  5.57154953  5.70027458  5.8250404   5.91440213  5.99136397
  6.12643676  6.14183451  6.25411119  6.42785116  6.63571596  6.85634616
  7.15251917  7.19561598  7.28653166  7.58330171  7.73408968  9.34864187
 17.63045167 17.92148387 17.92420789 18.39268559 18.4323066  18.79677379
 19.8382555  22.68272753 42.31146041 42.31599688 42.34964602 42.35173859
 42.40694706 42.4084479  42.41326611 42.4953826  42.50328269 42.56363062
 82.88115849 83.08430621 83.09450284 83.43699513 83.4824498  83.73015318
 90.68017003 95.63060677]
[...]
 17.81818992 17.81819012 18.30081069 19.03209495 19.71035782 19.71035826
 20.25385966 20.42001292 42.27822429 42.28221074 42.29821399 42.37079162
 42.37079163 42.3785257  42.45029153 42.51177533 42.51177537 42.60537695
 82.97509968 82.9750997  83.37869353 84.14534426 84.427704   84.42770406
 90.84754363 91.41566822]
  52 ( 0.750  0.250  0.000)   [-10.58072942 -10.57953458  -0.46325649  -0.04670049   0.03119938
   0.24463121] [ 1.03992167  1.16271466  1.24057439  1.33483458  1.53497408  1.54804161
  1.78284012  2.04263355  2.14841955  2.38294667  2.43343283  2.45263652
  2.77931896  2.90423976  2.98863361  3.13534843  3.14109852  3.41993504
  3.43417234  3.44665562  3.56480484  3.73243123  3.99774139  4.06071001
  4.21363888  4.23784071  4.3651451   4.44291545  4.49495068  4.50716
  4.78813289  4.83237476  5.0212188   5.02232122  5.3963093   5.43227078
  5.46292971  5.55882505  5.66431658  5.66763849  6.00084401  6.14223189
  6.22642063  6.31551187  6.41002329  6.44316474  6.76105725  6.8818885
  7.09038976  7.23738698  7.38110549  7.72878196  8.3610989   9.21984861
 17.33443452 17.56448391 18.37962057 18.37985915 18.64323643 18.90407355
 21.41054585 21.88523503 42.3198318  42.35546205 42.35722804 42.4023487
 42.44299342 42.45116746 42.46855954 42.50639493 42.53733757 42.57469635
 82.62319883 82.80592169 83.40949328 83.4303467  83.60573434 83.80679286
 93.42797114 94.20178137]
  53 ( 0.750  0.250  0.250)   [-10.58056457 -10.57971671  -0.38879124  -0.14535881   0.06592399
   0.15479722] [ 0.95305909  1.19321949  1.28751613  1.30666939  1.58876238  1.74472122
  1.83922423  1.9627145   2.16443664  2.38220384  2.5077372   2.56043856
  2.76363057  2.77184723  2.81713927  3.03170778  3.10756309  3.19305127
  3.36671645  3.47399997  3.67255574  3.69407019  3.89656422  4.05615765
  4.16016866  4.19297407  4.3533986   4.51016759  4.5380866   4.62578026
  4.76435937  5.01016278  5.04498571  5.25270653  5.27565523  5.35252649
  5.47750751  5.58487042  5.72078932  5.83899469  5.92573065  6.00510556
  6.143077    6.15307798  6.27504618  6.43944804  6.65772416  6.87144727
  7.16818762  7.21387629  7.30231324  7.60793261  7.75011295  9.36682031
 17.65151601 17.94116886 17.94605937 18.41207095 18.4520156  18.81731128
 19.86212424 22.70346541 42.326942   42.33146341 42.36515035 42.36726808
 42.42264542 42.42408769 42.4289669  42.51089946 42.51889807 42.57918067
 82.87608884 83.07910466 83.08953882 83.43178302 83.47724876 83.72506734
 90.66861364 95.6179316 ]
  54 ( 0.750  0.250  0.500)   [-1.05801521e+01 -1.05801521e+01 -2.21310924e-01 -2.21310915e-01
  9.00467624e-05  9.00741206e-05] [ 1.14947151  1.14947152  1.26628048  1.2662805   1.64562033  1.64562034
  1.95904703  1.95904703  2.42606231  2.42606232  2.54927412  2.54927412
  2.64774281  2.64774281  2.95556705  2.95556705  3.00019648  3.00019648
  3.38782496  3.38782496  3.50062043  3.50062047  3.86860658  3.86860659
  4.27132486  4.27132486  4.48864482  4.48864482  4.54738392  4.54738392
  4.69206445  4.69206445  5.36378516  5.36378516  5.5805138   5.58051381
  5.5920575   5.59205751  5.74380385  5.74380385  5.77443509  5.7744351
  6.00506998  6.00507001  6.63267267  6.63267268  7.00115545  7.00115546
  7.01645564  7.01645578  7.11691705  7.11691708  8.30537875  8.30537883
 17.71457133 17.71457134 18.4134122  18.41341221 18.58802826 18.58802827
 20.75376664 20.7537667  42.31351235 42.31351235 42.37203677 42.37203677
 42.42065567 42.42065567 42.47846146 42.47846146 42.59998664 42.59998664
 82.91302247 82.91302248 83.42166946 83.42166947 83.55191681 83.55191682
 92.1379927  92.13799271]
  55 ( 0.750  0.250  0.750)   [-10.58056457 -10.57971671  -0.38879124  -0.14535881   0.06592399
   0.15479722] [ 0.95305909  1.19321949  1.28751613  1.30666939  1.58876238  1.74472122
  1.83922423  1.9627145   2.16443664  2.38220384  2.5077372   2.56043856
  2.76363055  2.77184724  2.81713927  3.03170777  3.10756308  3.19305127
  3.36671643  3.4740001   3.67255572  3.69407038  3.89656421  4.05615765
  4.16016867  4.19297406  4.35339856  4.51016758  4.5380866   4.6257804
  4.76435937  5.01016284  5.0449857   5.25270652  5.27565535  5.35252649
  5.47750758  5.58487041  5.72078942  5.83899469  5.92573067  6.00510551
  6.14307698  6.15307805  6.27504627  6.43944793  6.65772416  6.87144844
  7.16818757  7.21387637  7.30231292  7.60793256  7.75011304  9.36682075
 17.651516   17.94116886 17.94605947 18.41207095 18.45201561 18.8173113
 19.86212421 22.7034659  42.326942   42.33146341 42.36515035 42.36726809
 42.42264542 42.42408769 42.4289669  42.51089946 42.51889807 42.57918067
 82.87608884 83.07910466 83.08953883 83.43178302 83.47724877 83.72506734
 90.66861363 95.61793168]
  56 ( 0.750  0.500  0.000)   [-10.58056457 -10.57971671  -0.38879124  -0.14535881   0.06592397
   0.15479725] [ 0.95305907  1.19321949  1.28751614  1.30666939  1.58876238  1.74472122
  1.83922423  1.9627145   2.16443664  2.38220383  2.5077372   2.56043856
  2.76363054  2.77184724  2.81713927  3.03170777  3.10756307  3.19305127
  3.36671643  3.47400017  3.67255565  3.69407048  3.89656416  4.05615765
  4.16016843  4.19297397  4.35339852  4.51016756  4.53808652  4.62578047
  4.76435909  5.01016286  5.04498566  5.25270648  5.27565542  5.35252644
  5.47750761  5.58487034  5.72078947  5.83899469  5.92573058  6.00510539
  6.14307675  6.15307808  6.27504631  6.43944772  6.65772416  6.87144902
  7.16818733  7.21387642  7.30231262  7.60793242  7.75011185  9.36681632
 17.65151598 17.94116885 17.94605952 18.41207095 18.45201561 18.81731128
 19.86212416 22.70346406 42.326942   42.33146341 42.36515034 42.36726809
 42.42264542 42.42408768 42.4289669  42.51089947 42.51889807 42.57918066
 82.87608884 83.07910466 83.08953884 83.43178302 83.47724877 83.72506734
 90.66861362 95.61793113]
  57 ( 0.750  0.500  0.250)   [-1.05801521e+01 -1.05801521e+01 -2.21310924e-01 -2.21310915e-01
  9.00467589e-05  9.00741250e-05] [ 1.14947151  1.14947152  1.26628048  1.2662805   1.64562033  1.64562034
  1.95904703  1.95904703  2.42606232  2.42606232  2.54927412  2.54927412
  2.64774281  2.64774281  2.95556705  2.95556705  3.00019648  3.00019648
  3.38782497  3.38782498  3.50062043  3.50062047  3.86860658  3.86860659
  4.27132486  4.27132486  4.48864483  4.48864483  4.54738392  4.54738392
  4.69206445  4.69206446  5.36378516  5.36378516  5.58051381  5.58051381
  5.5920575   5.59205752  5.74380385  5.74380385  5.77443509  5.7744351
  6.00507003  6.00507008  6.63267267  6.63267268  7.00115546  7.00115546
  7.01645563  7.01645577  7.11691711  7.11691713  8.30537875  8.30537882
 17.71457134 17.71457134 18.4134122  18.41341221 18.58802826 18.58802827
 20.75376664 20.75376669 42.31351235 42.31351235 42.37203677 42.37203677
 42.42065567 42.42065567 42.47846146 42.47846146 42.59998664 42.59998664
 82.91302247 82.91302248 83.42166946 83.42166947 83.55191681 83.55191682
 92.1379927  92.13799271]
  58 ( 0.750  0.500  0.500)   [-10.58056457 -10.57971671  -0.38879123  -0.1453588    0.06592397
   0.15479722] [ 0.95305908  1.1932195   1.28751613  1.3066694   1.58876239  1.74472123
  1.83922423  1.9627145   2.16443665  2.38220383  2.5077372   2.56043856
  2.76363056  2.77184724  2.81713927  3.03170777  3.10756308  3.19305127
  3.36671645  3.47400029  3.6725557   3.69407064  3.89656421  4.05615765
  4.16016869  4.19297408  4.35339859  4.51016758  4.5380866   4.62578059
  4.76435939  5.01016291  5.0449857   5.25270653  5.27565554  5.3525265
  5.47750766  5.58487042  5.72078956  5.83899469  5.92573067  6.0051055
  6.14307699  6.15307813  6.27504639  6.43944797  6.65772417  6.87144996
  7.16818745  7.21387648  7.30231312  7.60793268  7.75011313  9.36682068
 17.65151601 17.94116887 17.94605961 18.41207096 18.45201561 18.81731127
 19.8621242  22.70346559 42.326942   42.33146341 42.36515034 42.36726809
 42.42264543 42.4240877  42.4289669  42.51089947 42.51889807 42.57918067
 82.87608884 83.07910466 83.08953885 83.43178302 83.47724877 83.72506733
 90.66861363 95.61793169]
  59 ( 0.750  0.500  0.750)   [-10.58072942 -10.57953458  -0.46325649  -0.0467005    0.0311994
   0.24463118] [ 1.03992168  1.16271465  1.24057438  1.3348346   1.53497408  1.54804162
  1.78284012  2.04263355  2.14841955  2.38294667  2.43343283  2.45263652
  2.77931896  2.90423972  2.98863361  3.13534842  3.14109852  3.41993503
  3.43417236  3.44665563  3.56480534  3.73243115  3.99774139  4.06070998
  4.21363889  4.2378407   4.36514728  4.44291539  4.49495069  4.50715996
  4.78813317  4.83237476  5.0212188   5.02232121  5.39630994  5.43227079
  5.46292969  5.55882505  5.66431658  5.66763846  6.000844    6.14223188
  6.22642332  6.31551187  6.41002326  6.44316479  6.76105827  6.88188851
  7.09039156  7.23738691  7.38110523  7.72878208  8.36109787  9.21984884
 17.33443452 17.56448392 18.37962057 18.37985916 18.64323645 18.90407353
 21.41054548 21.8852351  42.3198318  42.35546206 42.35722803 42.4023487
 42.44299342 42.45116745 42.46855958 42.50639493 42.53733758 42.57469634
 82.62319882 82.80592169 83.40949327 83.4303467  83.60573434 83.80679286
 93.42797104 94.20178138]
  60 ( 0.750  0.750  0.000)   [-10.58094439 -10.57927751  -0.56842201   0.15959389   0.19504563
   0.19504566] [ 0.88448254  1.13258137  1.22976786  1.22976788  1.57721091  1.64479873
  1.89182674  2.03140332  2.03140332  2.12431286  2.38207104  2.38207104
  2.58819055  2.83021701  2.83220884  3.33476749  3.33476749  3.54496091
  3.54496093  3.56011474  3.62488677  3.88144819  4.02341385  4.1110544
  4.11105446  4.47602572  4.47602576  4.49991525  4.70211568  4.70975805
  4.70975808  4.7595083   4.76252396  5.0889526   5.34980215  5.35650665
  5.36908262  5.36908262  5.67918957  5.74637091  5.746371    5.83788728
  6.05912338  6.23236712  6.23236718  6.24366936  6.95328779  7.14585476
  7.14585477  7.15940729  7.52269291  7.52269422  7.79383245  8.14137569
 17.81819003 17.81819008 18.3008107  19.03209497 19.71035809 19.71035819
 20.2538598  20.42001294 42.27822429 42.28221074 42.29821399 42.37079163
 42.37079163 42.3785257  42.45029153 42.51177536 42.51177537 42.60537695
 82.97509969 82.9750997  83.37869353 84.14534427 84.42770405 84.42770406
 90.84754365 91.41566822]
  61 ( 0.750  0.750  0.250)   [-10.58056457 -10.57971671  -0.38879124  -0.14535881   0.06592399
   0.15479722] [ 0.95305909  1.19321949  1.28751613  1.30666939  1.58876238  1.74472122
  1.83922423  1.9627145   2.16443664  2.38220384  2.5077372   2.56043856
  2.76363055  2.77184723  2.81713927  3.03170777  3.10756307  3.19305127
  3.36671643  3.474       3.67255564  3.69407023  3.8965642   4.05615765
  4.16016863  4.19297404  4.35339856  4.51016757  4.53808658  4.62578029
  4.76435934  5.01016279  5.0449857   5.25270651  5.27565525  5.35252647
  5.47750753  5.5848704   5.72078934  5.83899469  5.92573067  6.00510543
  6.14307692  6.153078    6.2750462   6.43944783  6.65772416  6.87144758
  7.1681873   7.21387631  7.3023128   7.60793252  7.75011316  9.36682004
 17.651516   17.94116887 17.9460594  18.41207095 18.45201561 18.81731128
 19.86212421 22.70346567 42.326942   42.33146341 42.36515035 42.36726808
 42.42264542 42.42408769 42.4289669  42.51089946 42.51889806 42.57918067
 82.87608884 83.07910466 83.08953882 83.43178302 83.47724877 83.72506733
 90.66861363 95.61793163]
  62 ( 0.750  0.750  0.500)   [-10.58072942 -10.57953458  -0.46325649  -0.0467005    0.0311994
   0.24463118] [ 1.03992168  1.16271465  1.24057438  1.3348346   1.53497408  1.54804162
  1.78284012  2.04263356  2.14841954  2.38294667  2.43343283  2.45263652
  2.77931896  2.90423973  2.98863361  3.13534842  3.14109853  3.41993504
  3.43417236  3.44665563  3.56480516  3.73243133  3.99774145  4.06071003
  4.21363889  4.2378407   4.36514653  4.4429155   4.4949507   4.50716004
  4.78813307  4.83237476  5.0212188   5.02232121  5.39630971  5.43227079
  5.46292974  5.55882505  5.66431658  5.66763848  6.00084402  6.14223189
  6.22642239  6.31551185  6.41002333  6.44316478  6.76105792  6.88188851
  7.0903909   7.23738702  7.38110593  7.72878217  8.36109984  9.21984938
 17.33443452 17.56448392 18.37962056 18.37985916 18.64323648 18.90407359
 21.41054617 21.88523528 42.3198318  42.35546206 42.35722803 42.40234871
 42.44299342 42.45116746 42.46855956 42.50639493 42.53733758 42.57469635
 82.62319882 82.80592169 83.40949327 83.4303467  83.60573435 83.80679286
 93.42797128 94.20178145]
  63 ( 0.750  0.750  0.750)   [-10.58103969 -10.5791615   -0.59615586   0.07091389   0.30668194
   0.30668194] [ 1.04882692  1.04882692  1.05133554  1.36643357  1.56735407  1.60635366
  1.60635366  1.76590073  2.28787708  2.28787708  2.4404116   2.45814928
  2.45814928  2.50278142  3.14134344  3.14134345  3.49224263  3.5624177
  3.56241776  3.71652496  3.71652507  3.8367255   3.90825001  4.10741486
  4.20061979  4.20062005  4.4180081   4.41800822  4.61170575  4.67717644
  4.6771765   5.07737201  5.14861051  5.17305329  5.17305333  5.18219642
  5.39559288  5.49962368  5.4996237   5.77129901  5.77129902  5.77958027
  6.02685216  6.02685219  6.24467787  6.2446779   6.41877534  7.0394773
  7.03947758  7.36001751  7.53875355  7.53875835  7.59037447  8.3854301
 17.79581613 18.65541033 18.65541092 19.15885325 19.2245447  19.22454477
 19.75203183 21.65211757 42.27447412 42.27447412 42.32266041 42.3723851
 42.3723851  42.42768466 42.42768466 42.49855584 42.59368838 42.59368843
 83.09077293 83.58911666 83.58911673 84.0656136  84.06561361 84.13167691
 89.68124638 93.99340721]
    CPU time for get_k_kpts: make_kpt ki>=kj (0,*)      1.45 sec, wall time      0.05 sec
    CPU time for get_k_kpts: make_kpt ki>=kj (1,*)      6.03 sec, wall time      0.19 sec
    CPU time for get_k_kpts: make_kpt ki>=kj (2,*)      9.35 sec, wall time      0.29 sec
    CPU time for get_k_kpts: make_kpt ki>=kj (3,*)     12.79 sec, wall time      0.40 sec
    CPU time for get_k_kpts: make_kpt ki>=kj (4,*)     15.28 sec, wall time      0.48 sec
    CPU time for get_k_kpts: make_kpt ki>=kj (5,*)     17.92 sec, wall time      0.56 sec
    CPU time for get_k_kpts: make_kpt ki>=kj (6,*)     19.93 sec, wall time      0.63 sec
    CPU time for get_k_kpts: make_kpt ki>=kj (7,*)     23.46 sec, wall time      0.74 sec
    CPU time for get_k_kpts: make_kpt ki>=kj (8,*)     25.03 sec, wall time      0.79 sec
    CPU time for get_k_kpts: make_kpt ki>=kj (9,*)     26.43 sec, wall time      0.83 sec
    CPU time for get_k_kpts: make_kpt ki>=kj (10,*)     31.62 sec, wall time      0.99 sec
    CPU time for get_k_kpts: make_kpt ki>=kj (11,*)     40.00 sec, wall time      1.30 sec
    CPU time for get_k_kpts: make_kpt ki>=kj (12,*)     44.77 sec, wall time      1.42 sec
    CPU time for get_k_kpts: make_kpt ki>=kj (13,*)     43.45 sec, wall time      1.37 sec
    CPU time for get_k_kpts: make_kpt ki>=kj (14,*)     43.06 sec, wall time      1.36 sec
    CPU time for get_k_kpts: make_kpt ki>=kj (15,*)     48.64 sec, wall time      1.53 sec
    CPU time for get_k_kpts: make_kpt ki>=kj (16,*)     42.22 sec, wall time      1.33 sec
    CPU time for get_k_kpts: make_kpt ki>=kj (17,*)     48.37 sec, wall time      1.52 sec
    CPU time for get_k_kpts: make_kpt ki>=kj (18,*)     50.56 sec, wall time      1.59 sec
    CPU time for get_k_kpts: make_kpt ki>=kj (19,*)     54.62 sec, wall time      1.72 sec
    CPU time for get_k_kpts: make_kpt ki>=kj (20,*)     55.52 sec, wall time      1.74 sec
    CPU time for get_k_kpts: make_kpt ki>=kj (21,*)     58.26 sec, wall time      1.83 sec
    CPU time for get_k_kpts: make_kpt ki>=kj (22,*)     63.60 sec, wall time      2.00 sec
    CPU time for get_k_kpts: make_kpt ki>=kj (23,*)     62.92 sec, wall time      1.98 sec
    CPU time for get_k_kpts: make_kpt ki>=kj (24,*)     68.01 sec, wall time      2.13 sec
    CPU time for get_k_kpts: make_kpt ki>=kj (25,*)     68.93 sec, wall time      2.16 sec
    CPU time for get_k_kpts: make_kpt ki>=kj (26,*)     73.51 sec, wall time      2.31 sec
    CPU time for get_k_kpts: make_kpt ki>=kj (27,*)     72.62 sec, wall time      2.28 sec
    CPU time for get_k_kpts: make_kpt ki>=kj (28,*)     76.34 sec, wall time      2.40 sec
    CPU time for get_k_kpts: make_kpt ki>=kj (29,*)     80.68 sec, wall time      2.54 sec
    CPU time for get_k_kpts: make_kpt ki>=kj (30,*)     79.49 sec, wall time      2.51 sec
    CPU time for get_k_kpts: make_kpt ki>=kj (31,*)     87.45 sec, wall time      2.76 sec
    CPU time for get_k_kpts: make_kpt ki>=kj (32,*)     84.95 sec, wall time      2.67 sec
    CPU time for get_k_kpts: make_kpt ki>=kj (33,*)     85.75 sec, wall time      2.69 sec
    CPU time for get_k_kpts: make_kpt ki>=kj (34,*)     93.20 sec, wall time      2.93 sec
    CPU time for get_k_kpts: make_kpt ki>=kj (35,*)     92.31 sec, wall time      2.90 sec
    CPU time for get_k_kpts: make_kpt ki>=kj (36,*)     96.34 sec, wall time      3.03 sec
    CPU time for get_k_kpts: make_kpt ki>=kj (37,*)     97.71 sec, wall time      3.07 sec
    CPU time for get_k_kpts: make_kpt ki>=kj (38,*)    104.90 sec, wall time      3.32 sec
    CPU time for get_k_kpts: make_kpt ki>=kj (39,*)    123.52 sec, wall time      3.93 sec
    CPU time for get_k_kpts: make_kpt ki>=kj (40,*)    105.13 sec, wall time      3.30 sec
    CPU time for get_k_kpts: make_kpt ki>=kj (41,*)    107.66 sec, wall time      3.38 sec
    CPU time for get_k_kpts: make_kpt ki>=kj (42,*)    111.13 sec, wall time      3.49 sec
    CPU time for get_k_kpts: make_kpt ki>=kj (43,*)    115.12 sec, wall time      3.61 sec
    CPU time for get_k_kpts: make_kpt ki>=kj (44,*)    113.98 sec, wall time      3.59 sec
    CPU time for get_k_kpts: make_kpt ki>=kj (45,*)    117.92 sec, wall time      3.70 sec
    CPU time for get_k_kpts: make_kpt ki>=kj (46,*)    123.46 sec, wall time      3.88 sec
    CPU time for get_k_kpts: make_kpt ki>=kj (47,*)    124.96 sec, wall time      3.93 sec
    CPU time for get_k_kpts: make_kpt ki>=kj (48,*)    123.32 sec, wall time      3.87 sec
    CPU time for get_k_kpts: make_kpt ki>=kj (49,*)    126.53 sec, wall time      3.97 sec
    CPU time for get_k_kpts: make_kpt ki>=kj (50,*)    130.01 sec, wall time      4.08 sec
    CPU time for get_k_kpts: make_kpt ki>=kj (51,*)    133.20 sec, wall time      4.18 sec
    CPU time for get_k_kpts: make_kpt ki>=kj (52,*)    135.92 sec, wall time      4.27 sec
    CPU time for get_k_kpts: make_kpt ki>=kj (53,*)    139.16 sec, wall time      4.38 sec
    CPU time for get_k_kpts: make_kpt ki>=kj (54,*)    141.42 sec, wall time      4.44 sec
    CPU time for get_k_kpts: make_kpt ki>=kj (55,*)    146.12 sec, wall time      4.60 sec
    CPU time for get_k_kpts: make_kpt ki>=kj (56,*)    142.31 sec, wall time      4.47 sec
    CPU time for get_k_kpts: make_kpt ki>=kj (57,*)    145.86 sec, wall time      4.58 sec
    CPU time for get_k_kpts: make_kpt ki>=kj (58,*)    150.94 sec, wall time      4.74 sec
    CPU time for get_k_kpts: make_kpt ki>=kj (59,*)    157.95 sec, wall time      4.96 sec
    CPU time for get_k_kpts: make_kpt ki>=kj (60,*)    154.89 sec, wall time      4.87 sec
    CPU time for get_k_kpts: make_kpt ki>=kj (61,*)    162.31 sec, wall time      5.10 sec
    CPU time for get_k_kpts: make_kpt ki>=kj (62,*)    161.63 sec, wall time      5.07 sec
    CPU time for get_k_kpts: make_kpt ki>=kj (63,*)    163.39 sec, wall time      5.14 sec
Monkhorst pack size [4 4 4] ew_eta 1.567785923794447 ew_cut 4.486233713020537
Ewald components = 0, -0.88465892227202, 0.799631562152575
    CPU time for get_j pass 1     78.35 sec, wall time      2.68 sec
    CPU time for get_j pass 2      5.36 sec, wall time      1.55 sec
    CPU time for vj and vk   5552.76 sec, wall time    176.24 sec
Ewald components = 3.0606179073546e-132, -242.469443607053, 213.698400957796
E1 = (-51.26301351810259+6.887743681797478e-15j)  E_coul = (4.258953731212447-7.893788215106975e-16j)
Extra cycle  E= -75.7751024361471  delta_E= -4.5e-10  |g|= 5.52e-05  |ddm|= 0.0432
    CPU time for scf_cycle  82533.51 sec, wall time   3200.71 sec
    CPU time for SCF  82533.56 sec, wall time   3200.87 sec
converged SCF energy = -75.7751024361471
