Discarded 1 diffused primitive functions, 0 contracted functions
#INFO: **** input file is /burg/ccce/users/eav2136/projects/core_level_spectroscopy/01_peommp2_cbe/meanfield.py ****
#!/usr/bin/env python
import json
from pyscf.pbc import gto, scf
from pyscf.pbc.tools import lattice, pyscf_ase
from pyscf.pbc.scf import chkfile
from fileutils import load, dump
import sys

material = load("data/{}".format(sys.argv[1]))
# Create Cell
cell = gto.Cell()
ase_atom = lattice.get_ase_atom(material["formula"])
cell.atom = pyscf_ase.ase_atoms_to_pyscf(ase_atom)
cell.a = ase_atom.cell[:]
cell.unit = "B"
cell.basis = material["basis"]
cell.exp_to_discard = material["exp_to_discard"]
cell.verbose = 7
cell.build()

# Mean Field
kdensity = material["kdensity"]
kmesh = [kdensity, kdensity, kdensity]
kpts = cell.make_kpts(kmesh, scaled_center=material["vb_scaled_center"])
mymf = scf.KRHF(cell, kpts=kpts, exxdiv="ewald")
mymf.chkfile = "data/{}".format(material["chk"])
mymf = mymf.density_fit()
mymf.with_df._cderi_to_save = "data/{}".format(material["cderi"])
ekrhf = mymf.kernel()
convergence = mymf.converged
mymf_data = dict([("ekrhf", float(ekrhf)),
                  ("convergence", bool(convergence))])
dump(mymf_data, "data/{}".format(material["ekrhf"]))
#INFO: ******************** input file end ********************


System: uname_result(system='Linux', node='g151', release='4.18.0-193.el8.x86_64', version='#1 SMP Fri Mar 27 14:35:58 UTC 2020', machine='x86_64')  Threads 32
Python 3.10.12 (main, Jul 29 2023, 11:27:27) [GCC 13.2.0]
numpy 1.25.1  scipy 1.10.1
Date: Thu Jan 25 14:38:30 2024
PySCF version 2.0.1
PySCF path  /burg/berkelbach/users/eav2136/builds/pyscf/projected-cvs/pyscf
GIT ORIG_HEAD 0bfbc692adf3ea63b8a509210433219cd1c472a2
GIT HEAD (branch projected-cvs) e14caaa2dddc538b9be2d86f01e5b456fc92da36

[ENV] PYSCF_TMPDIR /burg/ccce/users/eav2136/projects/core_level_spectroscopy/01_peommp2_cbe/tmp
[ENV] PYSCF_MAX_MEMORY 700000
[CONFIG] DEBUG = False
[CONFIG] MAX_MEMORY = 700000
[CONFIG] TMPDIR = /burg/ccce/users/eav2136/projects/core_level_spectroscopy/01_peommp2_cbe/tmp
[CONFIG] UNIT = angstrom
[CONFIG] VERBOSE = 3
[CONFIG] conf_file = None
[INPUT] verbose = 7
[INPUT] max_memory = 700000 
[INPUT] num. atoms = 2
[INPUT] num. electrons = 20
[INPUT] charge = 0
[INPUT] spin (= nelec alpha-beta = 2S) = 0
[INPUT] symmetry False subgroup None
[INPUT] Mole.unit = B
[INPUT]  1 Mg     0.000000000000   0.000000000000   0.000000000000 AA    0.000000000000   0.000000000000   0.000000000000 Bohr
[INPUT]  2 O      2.106499848884   0.000000000000   0.000000000000 AA    3.980707795829   0.000000000000   0.000000000000 Bohr
[INPUT] ---------------- BASIS SET ---------------- 
[INPUT] l, kappa, [nprim/nctr], expnt,             c_1 c_2 ...
[INPUT] O
[INPUT] 0    0    [8    /2   ]  15330             0.000508 -0.000115
                                2299              0.003929 -0.000895
                                522.4             0.020243 -0.004636
                                147.3             0.079181 -0.018724
                                47.55             0.230687 -0.058463
                                16.76             0.433118 -0.136463
                                6.207             0.35026 -0.17574
                                0.6882            -0.008154 0.603418
[INPUT] 0    0    [1    /1   ]  1.752                1
[INPUT] 0    0    [1    /1   ]  0.2384               1
[INPUT] 1    0    [3    /1   ]  34.46             0.015928
                                7.749             0.09974
                                2.28              0.310492
[INPUT] 1    0    [1    /1   ]  0.7156               1
[INPUT] 1    0    [1    /1   ]  0.214                1
[INPUT] 2    0    [1    /1   ]  2.314                1
[INPUT] 2    0    [1    /1   ]  0.645                1
[INPUT] 3    0    [1    /1   ]  1.428                1
[INPUT] 0    0    [1    /1   ]  7.845                1
[INPUT] 0    0    [1    /1   ]  21.032               1
[INPUT] 1    0    [1    /1   ]  15.159               1
[INPUT] 1    0    [1    /1   ]  57.437               1
[INPUT] 2    0    [1    /1   ]  15.858               1
[INPUT] Mg
[INPUT] 0    0    [13   /3   ]  164900            7.29929e-05 -1.84248e-05 3.55176e-06
                                24710             0.000566652 -0.0001435 2.7642e-05
                                5628              0.00296269 -0.00074871 0.000144404
                                1596              0.0122962 -0.00314407 0.000605744
                                521               0.0427324 -0.0110481 0.00213527
                                188               0.123013 -0.0336058 0.00649934
                                73.01             0.274832 -0.0825946 0.0161446
                                29.9              0.401818 -0.159314 0.0315766
                                12.54             0.264697 -0.152888 0.0316374
                                4.306             0.0332612 0.190849 -0.043914
                                1.826             -0.00441335 0.579964 -0.151093
                                0.7417            0.00206024 0.372029 -0.217668
                                0.07612           0.000708195 -0.0119344 0.547245
[INPUT] 0    0    [1    /1   ]  0.1457               1
[INPUT] 0    0    [1    /1   ]  0.0331               1
[INPUT] 1    0    [8    /2   ]  316.9             0.00207532 -0.000329727
                                74.86             0.0162869 -0.00258754
                                23.72             0.0738697 -0.011912
                                8.669             0.214297 -0.0350227
                                3.363             0.382154 -0.0639968
                                1.31              0.398178 -0.0704436
                                0.4911            0.152878 -0.0375836
                                0.2364            -0.0043754 0.177043
[INPUT] 1    0    [1    /1   ]  0.08733              1
[INPUT] 2    0    [1    /1   ]  0.126                1
[INPUT] 2    0    [1    /1   ]  0.294                1
[INPUT] 3    0    [1    /1   ]  0.252                1
[INPUT] 0    0    [1    /1   ]  17.516               1
[INPUT] 0    0    [1    /1   ]  3.87                 1
[INPUT] 1    0    [1    /1   ]  20.297               1
[INPUT] 1    0    [1    /1   ]  5.105                1
[INPUT] 2    0    [1    /1   ]  7.029                1
[INPUT] 2    0    [1    /1   ]  2.121                1
[INPUT] 3    0    [1    /1   ]  4.53                 1

Ewald components = 9.1775830151223e-178, -596.417259326552, 523.385019500803
nuclear repulsion = -73.0322398257483
number of shells = 29
number of NR pGTOs = 139
number of NR cGTOs = 99
basis = ccpcvtz
ecp = {}
bas 0, expnt(s) = [1.649e+05 2.471e+04 5.628e+03 1.596e+03 5.210e+02 1.880e+02 7.301e+01
 2.990e+01 1.254e+01 4.306e+00 1.826e+00 7.417e-01 7.612e-02]
bas 1, expnt(s) = [0.1457]
bas 2, expnt(s) = [0.0331]
bas 3, expnt(s) = [3.169e+02 7.486e+01 2.372e+01 8.669e+00 3.363e+00 1.310e+00 4.911e-01
 2.364e-01]
bas 4, expnt(s) = [0.08733]
bas 5, expnt(s) = [0.126]
bas 6, expnt(s) = [0.294]
bas 7, expnt(s) = [0.252]
bas 8, expnt(s) = [17.516]
bas 9, expnt(s) = [3.87]
bas 10, expnt(s) = [20.297]
bas 11, expnt(s) = [5.105]
bas 12, expnt(s) = [7.029]
bas 13, expnt(s) = [2.121]
bas 14, expnt(s) = [4.53]
bas 15, expnt(s) = [1.533e+04 2.299e+03 5.224e+02 1.473e+02 4.755e+01 1.676e+01 6.207e+00
 6.882e-01]
bas 16, expnt(s) = [1.752]
bas 17, expnt(s) = [0.2384]
bas 18, expnt(s) = [34.46   7.749  2.28 ]
bas 19, expnt(s) = [0.7156]
bas 20, expnt(s) = [0.214]
bas 21, expnt(s) = [2.314]
bas 22, expnt(s) = [0.645]
bas 23, expnt(s) = [1.428]
bas 24, expnt(s) = [7.845]
bas 25, expnt(s) = [21.032]
bas 26, expnt(s) = [15.159]
bas 27, expnt(s) = [57.437]
bas 28, expnt(s) = [15.858]
CPU time:         0.93
lattice vectors  a1 [0.000000000, 3.980707796, 3.980707796]
                 a2 [3.980707796, 0.000000000, 3.980707796]
                 a3 [3.980707796, 3.980707796, 0.000000000]
dimension = 3
low_dim_ft_type = None
Cell volume = 126.157
exp_to_discard = 0.033
rcut = 38.526599018932664 (nimgs = [9 9 9])
lattice sum = 3584 cells
precision = 1e-08
pseudo = None
ke_cutoff = 357949.93847749155
    = [1238 1238 1238] mesh (1897413272 PWs)


******** <class 'pyscf.pbc.scf.khf.KRHF'> ********
method = KRHF-KSCF-RHF-SCF-RHF
initial guess = minao
damping factor = 0
level_shift factor = 0
DIIS = <class 'pyscf.scf.diis.CDIIS'>
diis_start_cycle = 1
diis_space = 8
SCF conv_tol = 1e-07
SCF conv_tol_grad = None
SCF max_cycles = 50
direct_scf = True
direct_scf_tol = 1e-13
chkfile to save SCF result = data/mgo_ccpcvtz_k4_Mg_2p_nvir_act21.chk
max_memory 700000 MB (current use 117 MB)


******** PBC SCF flags ********
N kpts = 64
kpts = [[ 0.          0.          0.        ]
 [ 0.19730113  0.19730113 -0.19730113]
 [ 0.39460227  0.39460227 -0.39460227]
 [ 0.5919034   0.5919034  -0.5919034 ]
 [ 0.19730113 -0.19730113  0.19730113]
 [ 0.39460227  0.          0.        ]
 [ 0.5919034   0.19730113 -0.19730113]
 [ 0.78920454  0.39460227 -0.39460227]
 [ 0.39460227 -0.39460227  0.39460227]
 [ 0.5919034  -0.19730113  0.19730113]
 [ 0.78920454  0.          0.        ]
 [ 0.98650567  0.19730113 -0.19730113]
 [ 0.5919034  -0.5919034   0.5919034 ]
 [ 0.78920454 -0.39460227  0.39460227]
 [ 0.98650567 -0.19730113  0.19730113]
 [ 1.18380681  0.          0.        ]
 [-0.19730113  0.19730113  0.19730113]
 [ 0.          0.39460227  0.        ]
 [ 0.19730113  0.5919034  -0.19730113]
 [ 0.39460227  0.78920454 -0.39460227]
 [ 0.          0.          0.39460227]
 [ 0.19730113  0.19730113  0.19730113]
 [ 0.39460227  0.39460227  0.        ]
 [ 0.5919034   0.5919034  -0.19730113]
 [ 0.19730113 -0.19730113  0.5919034 ]
 [ 0.39460227  0.          0.39460227]
 [ 0.5919034   0.19730113  0.19730113]
 [ 0.78920454  0.39460227  0.        ]
 [ 0.39460227 -0.39460227  0.78920454]
 [ 0.5919034  -0.19730113  0.5919034 ]
 [ 0.78920454  0.          0.39460227]
 [ 0.98650567  0.19730113  0.19730113]
 [-0.39460227  0.39460227  0.39460227]
 [-0.19730113  0.5919034   0.19730113]
 [ 0.          0.78920454  0.        ]
 [ 0.19730113  0.98650567 -0.19730113]
 [-0.19730113  0.19730113  0.5919034 ]
 [ 0.          0.39460227  0.39460227]
 [ 0.19730113  0.5919034   0.19730113]
 [ 0.39460227  0.78920454  0.        ]
 [ 0.          0.          0.78920454]
 [ 0.19730113  0.19730113  0.5919034 ]
 [ 0.39460227  0.39460227  0.39460227]
 [ 0.5919034   0.5919034   0.19730113]
 [ 0.19730113 -0.19730113  0.98650567]
 [ 0.39460227  0.          0.78920454]
 [ 0.5919034   0.19730113  0.5919034 ]
 [ 0.78920454  0.39460227  0.39460227]
 [-0.5919034   0.5919034   0.5919034 ]
 [-0.39460227  0.78920454  0.39460227]
 [-0.19730113  0.98650567  0.19730113]
 [ 0.          1.18380681  0.        ]
 [-0.39460227  0.39460227  0.78920454]
 [-0.19730113  0.5919034   0.5919034 ]
 [ 0.          0.78920454  0.39460227]
 [ 0.19730113  0.98650567  0.19730113]
 [-0.19730113  0.19730113  0.98650567]
 [ 0.          0.39460227  0.78920454]
 [ 0.19730113  0.5919034   0.5919034 ]
 [ 0.39460227  0.78920454  0.39460227]
 [ 0.          0.          1.18380681]
 [ 0.19730113  0.19730113  0.98650567]
 [ 0.39460227  0.39460227  0.78920454]
 [ 0.5919034   0.5919034   0.5919034 ]]
Exchange divergence treatment (exxdiv) = ewald
Monkhorst pack size [4 4 4] ew_eta 1.3357296425370517 ew_cut 5.2643847102778265
Ewald components = 0, -0.753713792271532, 0.681728131632692
    madelung (= occupied orbital energy shift) = 0.14397132127767853
    Total energy shift due to Ewald probe charge = -1/2 * Nelec*madelung = -1.43971321278
DF object = <pyscf.pbc.df.df.GDF object at 0x155553f43fd0>
Set gradient conv threshold to 0.000316228
Big error detected in the electron number of initial guess density matrix (Ne/cell = 19.9966)!
  This can cause huge error in Fock matrix and lead to instability in SCF for low-dimensional systems.
  DM is normalized wrt the number of electrons 20.0
    CPU time for vnuc pass1: analytic int   8450.02 sec, wall time    272.96 sec
    CPU time for contracting Vnuc [0:343]    125.56 sec, wall time      4.18 sec
    CPU time for contracting Vnuc    125.56 sec, wall time      4.18 sec
    CPU time for get_nuc   8575.89 sec, wall time    277.15 sec


******** <class 'pyscf.pbc.df.df.GDF'> ********
mesh = [7, 7, 7] (343 PWs)
auxbasis = None
eta = 0.2
exp_to_discard = 0.033
_cderi_to_save = data/mgo_ccpcvtz_k4_Mg_2p_nvir_act21_cderi.h5
len(kpts) = 64
    kpts = [[ 0.          0.          0.        ]
 [ 0.19730113  0.19730113 -0.19730113]
 [ 0.39460227  0.39460227 -0.39460227]
 [ 0.5919034   0.5919034  -0.5919034 ]
 [ 0.19730113 -0.19730113  0.19730113]
 [ 0.39460227  0.          0.        ]
 [ 0.5919034   0.19730113 -0.19730113]
 [ 0.78920454  0.39460227 -0.39460227]
 [ 0.39460227 -0.39460227  0.39460227]
 [ 0.5919034  -0.19730113  0.19730113]
 [ 0.78920454  0.          0.        ]
 [ 0.98650567  0.19730113 -0.19730113]
 [ 0.5919034  -0.5919034   0.5919034 ]
 [ 0.78920454 -0.39460227  0.39460227]
 [ 0.98650567 -0.19730113  0.19730113]
 [ 1.18380681  0.          0.        ]
 [-0.19730113  0.19730113  0.19730113]
 [ 0.          0.39460227  0.        ]
 [ 0.19730113  0.5919034  -0.19730113]
 [ 0.39460227  0.78920454 -0.39460227]
 [ 0.          0.          0.39460227]
 [ 0.19730113  0.19730113  0.19730113]
 [ 0.39460227  0.39460227  0.        ]
 [ 0.5919034   0.5919034  -0.19730113]
 [ 0.19730113 -0.19730113  0.5919034 ]
 [ 0.39460227  0.          0.39460227]
 [ 0.5919034   0.19730113  0.19730113]
 [ 0.78920454  0.39460227  0.        ]
 [ 0.39460227 -0.39460227  0.78920454]
 [ 0.5919034  -0.19730113  0.5919034 ]
 [ 0.78920454  0.          0.39460227]
 [ 0.98650567  0.19730113  0.19730113]
 [-0.39460227  0.39460227  0.39460227]
 [-0.19730113  0.5919034   0.19730113]
 [ 0.          0.78920454  0.        ]
 [ 0.19730113  0.98650567 -0.19730113]
 [-0.19730113  0.19730113  0.5919034 ]
 [ 0.          0.39460227  0.39460227]
 [ 0.19730113  0.5919034   0.19730113]
 [ 0.39460227  0.78920454  0.        ]
 [ 0.          0.          0.78920454]
 [ 0.19730113  0.19730113  0.5919034 ]
 [ 0.39460227  0.39460227  0.39460227]
 [ 0.5919034   0.5919034   0.19730113]
 [ 0.19730113 -0.19730113  0.98650567]
 [ 0.39460227  0.          0.78920454]
 [ 0.5919034   0.19730113  0.5919034 ]
 [ 0.78920454  0.39460227  0.39460227]
 [-0.5919034   0.5919034   0.5919034 ]
 [-0.39460227  0.78920454  0.39460227]
 [-0.19730113  0.98650567  0.19730113]
 [ 0.          1.18380681  0.        ]
 [-0.39460227  0.39460227  0.78920454]
 [-0.19730113  0.5919034   0.5919034 ]
 [ 0.          0.78920454  0.39460227]
 [ 0.19730113  0.98650567  0.19730113]
 [-0.19730113  0.19730113  0.98650567]
 [ 0.          0.39460227  0.78920454]
 [ 0.19730113  0.5919034   0.5919034 ]
 [ 0.39460227  0.78920454  0.39460227]
 [ 0.          0.          1.18380681]
 [ 0.19730113  0.19730113  0.98650567]
 [ 0.39460227  0.39460227  0.78920454]
 [ 0.5919034   0.5919034   0.5919034 ]]
Even tempered Gaussians are generated as DF auxbasis for  O Mg
  ETB auxbasis for O  [[0, [3905.9456, 1]], [0, [1952.9728, 1]], [0, [976.4864, 1]], [0, [488.2432, 1]], [0, [244.1216, 1]], [0, [122.0608, 1]], [0, [61.0304, 1]], [0, [30.5152, 1]], [0, [15.2576, 1]], [0, [7.6288, 1]], [0, [3.8144, 1]], [0, [1.9072, 1]], [0, [0.9536, 1]], [0, [0.4768, 1]], [1, [462.5833154691163, 1]], [1, [231.29165773455816, 1]], [1, [115.64582886727908, 1]], [1, [57.82291443363954, 1]], [1, [28.91145721681977, 1]], [1, [14.455728608409885, 1]], [1, [7.227864304204942, 1]], [1, [3.613932152102471, 1]], [1, [1.8069660760512356, 1]], [1, [0.9034830380256178, 1]], [1, [0.4517415190128089, 1]], [2, [219.136, 1]], [2, [109.568, 1]], [2, [54.784, 1]], [2, [27.392, 1]], [2, [13.696, 1]], [2, [6.848, 1]], [2, [3.424, 1]], [2, [1.712, 1]], [2, [0.856, 1]], [2, [0.428, 1]], [3, [47.555057775172564, 1]], [3, [23.777528887586282, 1]], [3, [11.888764443793141, 1]], [3, [5.9443822218965705, 1]], [3, [2.9721911109482853, 1]], [3, [1.4860955554741426, 1]], [3, [0.7430477777370713, 1]], [4, [20.64, 1]], [4, [10.32, 1]], [4, [5.16, 1]], [4, [2.58, 1]], [4, [1.29, 1]]]
  ETB auxbasis for Mg  [[0, [8676.9664, 1]], [0, [4338.4832, 1]], [0, [2169.2416, 1]], [0, [1084.6208, 1]], [0, [542.3104, 1]], [0, [271.1552, 1]], [0, [135.5776, 1]], [0, [67.7888, 1]], [0, [33.8944, 1]], [0, [16.9472, 1]], [0, [8.4736, 1]], [0, [4.2368, 1]], [0, [2.1184, 1]], [0, [1.0592, 1]], [0, [0.5296, 1]], [0, [0.2648, 1]], [0, [0.1324, 1]], [0, [0.0662, 1]], [1, [1761.7556052178043, 1]], [1, [880.8778026089021, 1]], [1, [440.43890130445106, 1]], [1, [220.21945065222553, 1]], [1, [110.10972532611277, 1]], [1, [55.05486266305638, 1]], [1, [27.52743133152819, 1]], [1, [13.763715665764096, 1]], [1, [6.881857832882048, 1]], [1, [3.440928916441024, 1]], [1, [1.720464458220512, 1]], [1, [0.860232229110256, 1]], [1, [0.430116114555128, 1]], [1, [0.215058057277564, 1]], [1, [0.107529028638782, 1]], [2, [529.0408568328158, 1]], [2, [264.5204284164079, 1]], [2, [132.26021420820396, 1]], [2, [66.13010710410198, 1]], [2, [33.06505355205099, 1]], [2, [16.532526776025495, 1]], [2, [8.266263388012748, 1]], [2, [4.133131694006374, 1]], [2, [2.066565847003187, 1]], [2, [1.0332829235015935, 1]], [2, [0.5166414617507967, 1]], [2, [0.25832073087539836, 1]], [2, [0.12916036543769918, 1]], [3, [53.70775060938598, 1]], [3, [26.85387530469299, 1]], [3, [13.426937652346496, 1]], [3, [6.713468826173248, 1]], [3, [3.356734413086624, 1]], [3, [1.678367206543312, 1]], [3, [0.839183603271656, 1]], [3, [0.419591801635828, 1]], [3, [0.209795900817914, 1]], [4, [8.064, 1]], [4, [4.032, 1]], [4, [2.016, 1]], [4, [1.008, 1]], [4, [0.504, 1]], [4, [0.252, 1]]]
num shells = 108, num cGTOs = 436
Drop 0 primitive fitting functions
make aux basis, num shells = 108, num cGTOs = 436
auxcell.rcut 21.33945144632412
make compensating basis, num shells = 10, num cGTOs = 50
chgcell.rcut 11.482117703874595
    CPU time for 3c2e 312153.38 sec, wall time  10690.27 sec
Num uniq kpts 172
uniq_kpts [[ 0.          0.          0.        ]
 [-0.19730113 -0.19730113  0.19730113]
 [-0.39460227 -0.39460227  0.39460227]
 [-0.5919034  -0.5919034   0.5919034 ]
 [-0.19730113  0.19730113 -0.19730113]
 [ 0.          0.39460227 -0.39460227]
 [ 0.19730113  0.5919034  -0.5919034 ]
 [ 0.39460227  0.78920454 -0.78920454]
 [-0.39460227  0.          0.        ]
 [-0.5919034  -0.19730113  0.19730113]
 [-0.78920454 -0.39460227  0.39460227]
 [-0.39460227  0.39460227 -0.39460227]
 [-0.19730113  0.5919034  -0.5919034 ]
 [ 0.          0.78920454 -0.78920454]
 [ 0.19730113  0.98650567 -0.98650567]
 [-0.5919034   0.19730113 -0.19730113]
 [-0.78920454  0.          0.        ]
 [-0.98650567 -0.19730113  0.19730113]
 [-0.5919034   0.5919034  -0.5919034 ]
 [-0.39460227  0.78920454 -0.78920454]
 [-0.19730113  0.98650567 -0.98650567]
 [ 0.          1.18380681 -1.18380681]
 [-0.78920454  0.39460227 -0.39460227]
 [-0.98650567  0.19730113 -0.19730113]
 [-1.18380681  0.          0.        ]
 [ 0.19730113 -0.19730113 -0.19730113]
 [ 0.39460227  0.         -0.39460227]
 [ 0.5919034   0.19730113 -0.5919034 ]
 [ 0.78920454  0.39460227 -0.78920454]
 [ 0.39460227 -0.39460227  0.        ]
 [ 0.5919034  -0.19730113 -0.19730113]
 [ 0.78920454  0.         -0.39460227]
 [ 0.98650567  0.19730113 -0.5919034 ]
 [ 0.5919034  -0.5919034   0.19730113]
 [ 0.78920454 -0.39460227  0.        ]
 [ 0.98650567 -0.19730113 -0.19730113]
 [ 1.18380681  0.         -0.39460227]
 [ 0.78920454 -0.78920454  0.39460227]
 [ 0.98650567 -0.5919034   0.19730113]
 [ 1.18380681 -0.39460227  0.        ]
 [ 1.38110794 -0.19730113 -0.19730113]
 [ 0.         -0.39460227  0.        ]
 [ 0.19730113 -0.5919034   0.19730113]
 [ 0.39460227 -0.78920454  0.39460227]
 [ 0.5919034  -0.98650567  0.5919034 ]
 [-0.19730113 -0.5919034   0.19730113]
 [ 0.         -0.78920454  0.39460227]
 [ 0.19730113 -0.98650567  0.5919034 ]
 [ 0.39460227 -1.18380681  0.78920454]
 [-0.39460227 -0.78920454  0.39460227]
 [-0.19730113 -0.98650567  0.5919034 ]
 [ 0.         -1.18380681  0.78920454]
 [ 0.19730113 -1.38110794  0.98650567]
 [ 0.          0.         -0.39460227]
 [ 0.19730113  0.19730113 -0.5919034 ]
 [ 0.39460227  0.39460227 -0.78920454]
 [ 0.5919034   0.5919034  -0.98650567]
 [-0.19730113 -0.19730113 -0.19730113]
 [-0.39460227 -0.39460227  0.        ]
 [-0.5919034  -0.5919034   0.19730113]
 [-0.19730113  0.19730113 -0.5919034 ]
 [ 0.          0.39460227 -0.78920454]
 [ 0.19730113  0.5919034  -0.98650567]
 [ 0.39460227  0.78920454 -1.18380681]
 [-0.39460227  0.         -0.39460227]
 [-0.5919034  -0.19730113 -0.19730113]
 [-0.78920454 -0.39460227  0.        ]
 [-0.39460227  0.39460227 -0.78920454]
 [-0.19730113  0.5919034  -0.98650567]
 [ 0.          0.78920454 -1.18380681]
 [ 0.19730113  0.98650567 -1.38110794]
 [-0.5919034   0.19730113 -0.5919034 ]
 [-0.78920454  0.         -0.39460227]
 [-0.98650567 -0.19730113 -0.19730113]
 [ 0.39460227 -0.39460227 -0.39460227]
 [ 0.5919034  -0.19730113 -0.5919034 ]
 [ 0.78920454  0.         -0.78920454]
 [ 0.98650567  0.19730113 -0.98650567]
 [ 0.5919034  -0.5919034  -0.19730113]
 [ 0.78920454 -0.39460227 -0.39460227]
 [ 0.98650567 -0.19730113 -0.5919034 ]
 [ 1.18380681  0.         -0.78920454]
 [ 0.78920454 -0.78920454  0.        ]
 [ 0.98650567 -0.5919034  -0.19730113]
 [ 1.18380681 -0.39460227 -0.39460227]
 [ 1.38110794 -0.19730113 -0.5919034 ]
 [ 0.98650567 -0.98650567  0.19730113]
 [ 1.18380681 -0.78920454  0.        ]
 [ 1.38110794 -0.5919034  -0.19730113]
 [ 1.57840907 -0.39460227 -0.39460227]
 [ 0.19730113 -0.5919034  -0.19730113]
 [ 0.39460227 -0.78920454  0.        ]
 [ 0.5919034  -0.98650567  0.19730113]
 [ 0.78920454 -1.18380681  0.39460227]
 [ 0.         -0.78920454  0.        ]
 [ 0.19730113 -0.98650567  0.19730113]
 [ 0.39460227 -1.18380681  0.39460227]
 [ 0.5919034  -1.38110794  0.5919034 ]
 [-0.19730113 -0.98650567  0.19730113]
 [ 0.         -1.18380681  0.39460227]
 [ 0.19730113 -1.38110794  0.5919034 ]
 [ 0.39460227 -1.57840907  0.78920454]
 [ 0.19730113 -0.19730113 -0.5919034 ]
 [ 0.39460227  0.         -0.78920454]
 [ 0.5919034   0.19730113 -0.98650567]
 [ 0.78920454  0.39460227 -1.18380681]
 [ 0.         -0.39460227 -0.39460227]
 [-0.19730113 -0.5919034  -0.19730113]
 [-0.39460227 -0.78920454  0.        ]
 [ 0.          0.         -0.78920454]
 [ 0.19730113  0.19730113 -0.98650567]
 [ 0.39460227  0.39460227 -1.18380681]
 [ 0.5919034   0.5919034  -1.38110794]
 [-0.19730113 -0.19730113 -0.5919034 ]
 [-0.39460227 -0.39460227 -0.39460227]
 [-0.5919034  -0.5919034  -0.19730113]
 [-0.19730113  0.19730113 -0.98650567]
 [ 0.          0.39460227 -1.18380681]
 [ 0.19730113  0.5919034  -1.38110794]
 [ 0.39460227  0.78920454 -1.57840907]
 [-0.39460227  0.         -0.78920454]
 [-0.5919034  -0.19730113 -0.5919034 ]
 [-0.78920454 -0.39460227 -0.39460227]
 [ 0.5919034  -0.5919034  -0.5919034 ]
 [ 0.78920454 -0.39460227 -0.78920454]
 [ 0.98650567 -0.19730113 -0.98650567]
 [ 1.18380681  0.         -1.18380681]
 [ 0.78920454 -0.78920454 -0.39460227]
 [ 0.98650567 -0.5919034  -0.5919034 ]
 [ 1.18380681 -0.39460227 -0.78920454]
 [ 1.38110794 -0.19730113 -0.98650567]
 [ 0.98650567 -0.98650567 -0.19730113]
 [ 1.18380681 -0.78920454 -0.39460227]
 [ 1.38110794 -0.5919034  -0.5919034 ]
 [ 1.57840907 -0.39460227 -0.78920454]
 [ 1.18380681 -1.18380681  0.        ]
 [ 1.38110794 -0.98650567 -0.19730113]
 [ 1.57840907 -0.78920454 -0.39460227]
 [ 1.77571021 -0.5919034  -0.5919034 ]
 [ 0.39460227 -0.78920454 -0.39460227]
 [ 0.5919034  -0.98650567 -0.19730113]
 [ 0.78920454 -1.18380681  0.        ]
 [ 0.98650567 -1.38110794  0.19730113]
 [ 0.19730113 -0.98650567 -0.19730113]
 [ 0.39460227 -1.18380681  0.        ]
 [ 0.5919034  -1.38110794  0.19730113]
 [ 0.78920454 -1.57840907  0.39460227]
 [ 0.         -1.18380681  0.        ]
 [ 0.19730113 -1.38110794  0.19730113]
 [ 0.39460227 -1.57840907  0.39460227]
 [ 0.5919034  -1.77571021  0.5919034 ]
 [ 0.39460227 -0.39460227 -0.78920454]
 [ 0.5919034  -0.19730113 -0.98650567]
 [ 0.78920454  0.         -1.18380681]
 [ 0.98650567  0.19730113 -1.38110794]
 [ 0.19730113 -0.5919034  -0.5919034 ]
 [ 0.         -0.78920454 -0.39460227]
 [-0.19730113 -0.98650567 -0.19730113]
 [ 0.19730113 -0.19730113 -0.98650567]
 [ 0.39460227  0.         -1.18380681]
 [ 0.5919034   0.19730113 -1.38110794]
 [ 0.78920454  0.39460227 -1.57840907]
 [ 0.         -0.39460227 -0.78920454]
 [-0.19730113 -0.5919034  -0.5919034 ]
 [-0.39460227 -0.78920454 -0.39460227]
 [ 0.          0.         -1.18380681]
 [ 0.19730113  0.19730113 -1.38110794]
 [ 0.39460227  0.39460227 -1.57840907]
 [ 0.5919034   0.5919034  -1.77571021]
 [-0.19730113 -0.19730113 -0.98650567]
 [-0.39460227 -0.39460227 -0.78920454]
 [-0.5919034  -0.5919034  -0.5919034 ]]
max_memory 699039.44704 (MB)  blocksize 35958819
Cholesky decomposition for j2c at kpt 0
Symmetry pattern (k - [0. 0. 0.])*a= 2n pi
    make_kpt for uniq_kptji_ids [0]
kpt = [0. 0. 0.]
adapted_ji_idx = [   0    2    5    9   14   20   27   35   44   54   65   77   90  104
  119  135  152  170  189  209  230  252  275  299  324  350  377  405
  434  464  495  527  560  594  629  665  702  740  779  819  860  902
  945  989 1034 1080 1127 1175 1224 1274 1325 1377 1430 1484 1539 1595
 1652 1710 1769 1829 1890 1952 2015 2079]
memory = 329.568256
int3c2e [1/1], AO [0:29], ncol = 4950
Symmetry pattern (k + [0. 0. 0.])*a= 2n pi
    make_kpt for [0]
Cholesky decomposition for j2c at kpt 1
Symmetry pattern (k - [-0.19730113 -0.19730113  0.19730113])*a= 2n pi
    make_kpt for uniq_kptji_ids [1]
kpt = [-0.19730113 -0.19730113  0.19730113]
adapted_ji_idx = [   1    4    8   19   26   34   53   64   76  103  118  134  169  188
  208  251  274  298  349  376  404  463  494  526  593  628  664  739
  778  818  901  944  988 1079 1126 1174 1273 1324 1376 1483 1538 1594
 1709 1768 1828 1951 2014 2078]
memory = 2624.106496
int3c2e [1/1], AO [0:29], ncol = 9801
Symmetry pattern (k + [-0.19730113 -0.19730113  0.19730113])*a= 2n pi
    make_kpt for [3]
kpt = [-0.5919034 -0.5919034  0.5919034]
adapted_ji_idx = [   6   32   74  132  206  296  402  524  662  816  986 1172 1374 1592
 1826 2076]
memory = 2638.147584
int3c2e [1/1], AO [0:29], ncol = 9801
Cholesky decomposition for j2c at kpt 2
Symmetry pattern (k - [-0.39460227 -0.39460227  0.39460227])*a= 2n pi
    make_kpt for uniq_kptji_ids [2]
kpt = [-0.39460227 -0.39460227  0.39460227]
adapted_ji_idx = [   3    7   25   33   63   75  117  133  187  207  273  297  375  403
  493  525  627  663  777  817  943  987 1125 1173 1323 1375 1537 1593
 1767 1827 2013 2077]
memory = 3210.579968
int3c2e [1/1], AO [0:29], ncol = 9801
Symmetry pattern (k + [-0.39460227 -0.39460227  0.39460227])*a= 2n pi
    make_kpt for [2]
Cholesky decomposition for j2c at kpt 4
Symmetry pattern (k - [-0.19730113  0.19730113 -0.19730113])*a= 2n pi
    make_kpt for uniq_kptji_ids [4]
kpt = [-0.19730113  0.19730113 -0.19730113]
adapted_ji_idx = [  10   16   23   31   40   50   61   73   86  100  115  131  226  248
  271  295  320  346  373  401  430  460  491  523  698  736  775  815
  856  898  941  985 1030 1076 1123 1171 1426 1480 1535 1591 1648 1706
 1765 1825 1886 1948 2011 2075]
memory = 3371.229184
int3c2e [1/1], AO [0:29], ncol = 9801
Symmetry pattern (k + [-0.19730113  0.19730113 -0.19730113])*a= 2n pi
    make_kpt for [18]
kpt = [-0.5919034  0.5919034 -0.5919034]
adapted_ji_idx = [  78   92  107  123  422  452  483  515 1022 1068 1115 1163 1878 1940
 2003 2067]
memory = 3486.138368
int3c2e [1/1], AO [0:29], ncol = 9801
Cholesky decomposition for j2c at kpt 5
Symmetry pattern (k - [ 0.          0.39460227 -0.39460227])*a= 2n pi
    make_kpt for uniq_kptji_ids [ 5 10]
kpt = [ 0.          0.39460227 -0.39460227]
adapted_ji_idx = [  11   17   24   41   51   62   87  101  116  227  249  272  321  347
  374  431  461  492  699  737  776  857  899  942 1031 1077 1124 1427
 1481 1536 1649 1707 1766 1887 1949 2012]
memory = 3498.622976
int3c2e [1/1], AO [0:29], ncol = 9801
kpt = [-0.78920454 -0.39460227  0.39460227]
adapted_ji_idx = [  28   70  128  292  398  520  812  982 1168 1588 1822 2072]
memory = 3565.162496
int3c2e [1/1], AO [0:29], ncol = 9801
Symmetry pattern (k + [ 0.          0.39460227 -0.39460227])*a= 2n pi
    make_kpt for [21 22]
kpt = [ 0.          1.18380681 -1.18380681]
adapted_ji_idx = [  81  425 1025 1881]
memory = 3565.993984
int3c2e [1/1], AO [0:29], ncol = 9801
kpt = [-0.78920454  0.39460227 -0.39460227]
adapted_ji_idx = [  91  106  122  451  482  514 1067 1114 1162 1939 2002 2066]
memory = 3560.448
int3c2e [1/1], AO [0:29], ncol = 9801
Cholesky decomposition for j2c at kpt 6
DF metric linear dependency for kpt 6
cond = 1.863e+17, drop 23 bfns
Symmetry pattern (k - [ 0.19730113  0.5919034  -0.5919034 ])*a= 2n pi
    make_kpt for uniq_kptji_ids [6 9]
kpt = [ 0.19730113  0.5919034  -0.5919034 ]
adapted_ji_idx = [  12   18   42   52   88  102  228  250  322  348  432  462  700  738
  858  900 1032 1078 1428 1482 1650 1708 1888 1950]
memory = 3582.13632
int3c2e [1/1], AO [0:29], ncol = 9801
kpt = [-0.5919034  -0.19730113  0.19730113]
adapted_ji_idx = [  21   29   59   71  113  129  269  293  371  399  489  521  773  813
  939  983 1121 1169 1533 1589 1763 1823 2009 2073]
memory = 3596.845056
int3c2e [1/1], AO [0:29], ncol = 9801
Symmetry pattern (k + [ 0.19730113  0.5919034  -0.5919034 ])*a= 2n pi
    make_kpt for [20 23]
kpt = [-0.19730113  0.98650567 -0.98650567]
adapted_ji_idx = [  80   94  424  454 1024 1070 1880 1942]
memory = 3599.671296
int3c2e [1/1], AO [0:29], ncol = 9801
kpt = [-0.98650567  0.19730113 -0.19730113]
adapted_ji_idx = [ 105  121  481  513 1113 1161 2001 2065]
memory = 3597.774848
int3c2e [1/1], AO [0:29], ncol = 9801
Cholesky decomposition for j2c at kpt 7
Symmetry pattern (k - [ 0.39460227  0.78920454 -0.78920454])*a= 2n pi
    make_kpt for uniq_kptji_ids [7 8]
kpt = [ 0.39460227  0.78920454 -0.78920454]
adapted_ji_idx = [  13   43   89  229  323  433  701  859 1033 1429 1651 1889]
memory = 3598.11072
int3c2e [1/1], AO [0:29], ncol = 9801
kpt = [-0.39460227  0.          0.        ]
adapted_ji_idx = [  15   22   30   49   60   72   99  114  130  247  270  294  345  372
  400  459  490  522  735  774  814  897  940  984 1075 1122 1170 1479
 1534 1590 1705 1764 1824 1947 2010 2074]
memory = 3598.58176
int3c2e [1/1], AO [0:29], ncol = 9801
Symmetry pattern (k + [ 0.39460227  0.78920454 -0.78920454])*a= 2n pi
    make_kpt for [19 24]
kpt = [-0.39460227  0.78920454 -0.78920454]
adapted_ji_idx = [  79   93  108  423  453  484 1023 1069 1116 1879 1941 2004]
memory = 3606.298624
int3c2e [1/1], AO [0:29], ncol = 9801
kpt = [-1.18380681  0.          0.        ]
adapted_ji_idx = [ 120  512 1160 2064]
memory = 3607.560192
int3c2e [1/1], AO [0:29], ncol = 9801
Cholesky decomposition for j2c at kpt 11
Symmetry pattern (k - [-0.39460227  0.39460227 -0.39460227])*a= 2n pi
    make_kpt for uniq_kptji_ids [11]
kpt = [-0.39460227  0.39460227 -0.39460227]
adapted_ji_idx = [  36   46   57   69   82   96  111  127  316  342  369  397  426  456
  487  519  852  894  937  981 1026 1072 1119 1167 1644 1702 1761 1821
 1882 1944 2007 2071]
memory = 3606.85568
int3c2e [1/1], AO [0:29], ncol = 9801
Symmetry pattern (k + [-0.39460227  0.39460227 -0.39460227])*a= 2n pi
    make_kpt for [11]
Cholesky decomposition for j2c at kpt 12
DF metric linear dependency for kpt 12
cond = 1.66e+17, drop 23 bfns
Symmetry pattern (k - [-0.19730113  0.5919034  -0.5919034 ])*a= 2n pi
    make_kpt for uniq_kptji_ids [12 17]
kpt = [-0.19730113  0.5919034  -0.5919034 ]
adapted_ji_idx = [  37   47   58   83   97  112  317  343  370  427  457  488  853  895
  938 1027 1073 1120 1645 1703 1762 1883 1945 2008]
memory = 3613.22496
int3c2e [1/1], AO [0:29], ncol = 9801
kpt = [-0.98650567 -0.19730113  0.19730113]
adapted_ji_idx = [  66  124  394  516  978 1164 1818 2068]
memory = 3611.918336
int3c2e [1/1], AO [0:29], ncol = 9801
Symmetry pattern (k + [-0.19730113  0.5919034  -0.5919034 ])*a= 2n pi
    make_kpt for [14 15]
kpt = [ 0.19730113  0.98650567 -0.98650567]
adapted_ji_idx = [  39   85  319  429  855 1029 1647 1885]
memory = 3611.72992
int3c2e [1/1], AO [0:29], ncol = 9801
kpt = [-0.5919034   0.19730113 -0.19730113]
adapted_ji_idx = [  45   56   68   95  110  126  341  368  396  455  486  518  893  936
  980 1071 1118 1166 1701 1760 1820 1943 2006 2070]
memory = 3609.33376
int3c2e [1/1], AO [0:29], ncol = 9801
Cholesky decomposition for j2c at kpt 13
Symmetry pattern (k - [ 0.          0.78920454 -0.78920454])*a= 2n pi
    make_kpt for uniq_kptji_ids [13 16]
kpt = [ 0.          0.78920454 -0.78920454]
adapted_ji_idx = [  38   48   84   98  318  344  428  458  854  896 1028 1074 1646 1704
 1884 1946]
memory = 3610.2144
int3c2e [1/1], AO [0:29], ncol = 9801
kpt = [-0.78920454  0.          0.        ]
adapted_ji_idx = [  55   67  109  125  367  395  485  517  935  979 1117 1165 1759 1819
 2005 2069]
memory = 3611.521024
int3c2e [1/1], AO [0:29], ncol = 9801
Symmetry pattern (k + [ 0.          0.78920454 -0.78920454])*a= 2n pi
    make_kpt for [13 16]
Cholesky decomposition for j2c at kpt 25
Symmetry pattern (k - [ 0.19730113 -0.19730113 -0.19730113])*a= 2n pi
    make_kpt for uniq_kptji_ids [25]
kpt = [ 0.19730113 -0.19730113 -0.19730113]
adapted_ji_idx = [ 136  154  173  193  214  236  259  283  308  334  361  389  418  448
  479  511  544  578  613  649  686  724  763  803  844  886  929  973
 1018 1064 1111 1159 1208 1258 1309 1361 1414 1468 1523 1579 1636 1694
 1753 1813 1874 1936 1999 2063]
memory = 3611.377664
int3c2e [1/1], AO [0:29], ncol = 9801
Symmetry pattern (k + [ 0.19730113 -0.19730113 -0.19730113])*a= 2n pi
    make_kpt for [123]
kpt = [ 0.5919034 -0.5919034 -0.5919034]
adapted_ji_idx = [1176 1226 1277 1329 1382 1436 1491 1547 1604 1662 1721 1781 1842 1904
 1967 2031]
memory = 3622.989824
int3c2e [1/1], AO [0:29], ncol = 9801
Cholesky decomposition for j2c at kpt 26
Symmetry pattern (k - [ 0.39460227  0.         -0.39460227])*a= 2n pi
    make_kpt for uniq_kptji_ids [26 49]
kpt = [ 0.39460227  0.         -0.39460227]
adapted_ji_idx = [ 137  155  174  215  237  260  309  335  362  419  449  480  545  579
  614  687  725  764  845  887  930 1019 1065 1112 1209 1259 1310 1415
 1469 1524 1637 1695 1754 1875 1937 2000]
memory = 3622.48192
int3c2e [1/1], AO [0:29], ncol = 9801
kpt = [-0.39460227 -0.78920454  0.39460227]
adapted_ji_idx = [ 190  280  386  508  646  800  970 1156 1358 1576 1810 2060]
memory = 3623.333888
int3c2e [1/1], AO [0:29], ncol = 9801
Symmetry pattern (k + [ 0.39460227  0.         -0.39460227])*a= 2n pi
    make_kpt for [126 139]
kpt = [ 1.18380681  0.         -1.18380681]
adapted_ji_idx = [1179 1385 1607 1845]
memory = 3623.145472
int3c2e [1/1], AO [0:29], ncol = 9801
kpt = [ 0.39460227 -0.78920454 -0.39460227]
adapted_ji_idx = [1225 1276 1328 1435 1490 1546 1661 1720 1780 1903 1966 2030]
memory = 3622.084608
int3c2e [1/1], AO [0:29], ncol = 9801
Cholesky decomposition for j2c at kpt 27
DF metric linear dependency for kpt 27
cond = 3.798e+17, drop 23 bfns
Symmetry pattern (k - [ 0.5919034   0.19730113 -0.5919034 ])*a= 2n pi
    make_kpt for uniq_kptji_ids [27 45]
kpt = [ 0.5919034   0.19730113 -0.5919034 ]
adapted_ji_idx = [ 138  156  216  238  310  336  420  450  546  580  688  726  846  888
 1020 1066 1210 1260 1416 1470 1638 1696 1876 1938]
memory = 3624.824832
int3c2e [1/1], AO [0:29], ncol = 9801
kpt = [-0.19730113 -0.5919034   0.19730113]
adapted_ji_idx = [ 171  191  257  281  359  387  477  509  611  647  761  801  927  971
 1109 1157 1307 1359 1521 1577 1751 1811 1997 2061]
memory = 3624.869888
int3c2e [1/1], AO [0:29], ncol = 9801
Symmetry pattern (k + [ 0.5919034   0.19730113 -0.5919034 ])*a= 2n pi
    make_kpt for [125 143]
kpt = [ 0.98650567 -0.19730113 -0.98650567]
adapted_ji_idx = [1178 1228 1384 1438 1606 1664 1844 1906]
memory = 3625.14432
int3c2e [1/1], AO [0:29], ncol = 9801
kpt = [ 0.19730113 -0.98650567 -0.19730113]
adapted_ji_idx = [1275 1327 1489 1545 1719 1779 1965 2029]
memory = 3622.977536
int3c2e [1/1], AO [0:29], ncol = 9801
Cholesky decomposition for j2c at kpt 28
Symmetry pattern (k - [ 0.78920454  0.39460227 -0.78920454])*a= 2n pi
    make_kpt for uniq_kptji_ids [28 41]
kpt = [ 0.78920454  0.39460227 -0.78920454]
adapted_ji_idx = [ 139  217  311  421  547  689  847 1021 1211 1417 1639 1877]
memory = 3622.965248
int3c2e [1/1], AO [0:29], ncol = 9801
kpt = [ 0.         -0.39460227  0.        ]
adapted_ji_idx = [ 153  172  192  235  258  282  333  360  388  447  478  510  577  612
  648  723  762  802  885  928  972 1063 1110 1158 1257 1308 1360 1467
 1522 1578 1693 1752 1812 1935 1998 2062]
memory = 3623.133184
int3c2e [1/1], AO [0:29], ncol = 9801
Symmetry pattern (k + [ 0.78920454  0.39460227 -0.78920454])*a= 2n pi
    make_kpt for [124 147]
kpt = [ 0.78920454 -0.39460227 -0.78920454]
adapted_ji_idx = [1177 1227 1278 1383 1437 1492 1605 1663 1722 1843 1905 1968]
memory = 3625.7792
int3c2e [1/1], AO [0:29], ncol = 9801
kpt = [ 0.         -1.18380681  0.        ]
adapted_ji_idx = [1326 1544 1778 2028]
memory = 3624.742912
int3c2e [1/1], AO [0:29], ncol = 9801
Cholesky decomposition for j2c at kpt 29
Symmetry pattern (k - [ 0.39460227 -0.39460227  0.        ])*a= 2n pi
    make_kpt for uniq_kptji_ids [29 67]
kpt = [ 0.39460227 -0.39460227  0.        ]
adapted_ji_idx = [ 140  158  177  197  218  240  263  287  312  338  365  393  548  582
  617  653  690  728  767  807  848  890  933  977 1212 1262 1313 1365
 1418 1472 1527 1583 1640 1698 1757 1817]
memory = 3624.607744
int3c2e [1/1], AO [0:29], ncol = 9801
kpt = [-0.39460227  0.39460227 -0.78920454]
adapted_ji_idx = [ 406  436  467  499 1006 1052 1099 1147 1862 1924 1987 2051]
memory = 3627.876352
int3c2e [1/1], AO [0:29], ncol = 9801
Symmetry pattern (k + [ 0.39460227 -0.39460227  0.        ])*a= 2n pi
    make_kpt for [135 151]
kpt = [ 1.18380681 -1.18380681  0.        ]
adapted_ji_idx = [1188 1238 1289 1341]
memory = 3627.167744
int3c2e [1/1], AO [0:29], ncol = 9801
kpt = [ 0.39460227 -0.39460227 -0.78920454]
adapted_ji_idx = [1378 1432 1487 1543 1600 1658 1717 1777 1838 1900 1963 2027]
memory = 3626.487808
int3c2e [1/1], AO [0:29], ncol = 9801
Cholesky decomposition for j2c at kpt 30
Symmetry pattern (k - [ 0.5919034  -0.19730113 -0.19730113])*a= 2n pi
    make_kpt for uniq_kptji_ids [30 50 68 73]
kpt = [ 0.5919034  -0.19730113 -0.19730113]
adapted_ji_idx = [ 141  159  178  219  241  264  313  339  366  549  583  618  691  729
  768  849  891  934 1213 1263 1314 1419 1473 1528 1641 1699 1758]
memory = 3626.41408
int3c2e [1/1], AO [0:29], ncol = 9801
kpt = [-0.19730113 -0.98650567  0.5919034 ]
adapted_ji_idx = [ 194  284  390  650  804  974 1362 1580 1814]
memory = 3628.695552
int3c2e [1/1], AO [0:29], ncol = 9801
kpt = [-0.19730113  0.5919034  -0.98650567]
adapted_ji_idx = [ 407  437  468 1007 1053 1100 1863 1925 1988]
memory = 3628.756992
int3c2e [1/1], AO [0:29], ncol = 9801
kpt = [-0.98650567 -0.19730113 -0.19730113]
adapted_ji_idx = [ 496 1144 2048]
memory = 3630.628864
int3c2e [1/1], AO [0:29], ncol = 9801
Symmetry pattern (k + [ 0.5919034  -0.19730113 -0.19730113])*a= 2n pi
    make_kpt for [138 142 154 155]
kpt = [ 1.77571021 -0.5919034  -0.5919034 ]
adapted_ji_idx = [1191]
memory = 3628.29824
int3c2e [1/1], AO [0:29], ncol = 9801
kpt = [ 0.98650567 -1.38110794  0.19730113]
adapted_ji_idx = [1237 1288 1340]
memory = 3628.838912
int3c2e [1/1], AO [0:29], ncol = 9801
kpt = [ 0.98650567  0.19730113 -1.38110794]
adapted_ji_idx = [1381 1603 1841]
memory = 3628.29824
int3c2e [1/1], AO [0:29], ncol = 9801
kpt = [ 0.19730113 -0.5919034  -0.5919034 ]
adapted_ji_idx = [1431 1486 1542 1657 1716 1776 1899 1962 2026]
memory = 3627.921408
int3c2e [1/1], AO [0:29], ncol = 9801
Cholesky decomposition for j2c at kpt 31
Symmetry pattern (k - [ 0.78920454  0.         -0.39460227])*a= 2n pi
    make_kpt for uniq_kptji_ids [31 46 69 72]
kpt = [ 0.78920454  0.         -0.39460227]
adapted_ji_idx = [ 142  160  220  242  314  340  550  584  692  730  850  892 1214 1264
 1420 1474 1642 1700]
memory = 3629.830144
int3c2e [1/1], AO [0:29], ncol = 9801
kpt = [ 0.         -0.78920454  0.39460227]
adapted_ji_idx = [ 175  195  261  285  363  391  615  651  765  805  931  975 1311 1363
 1525 1581 1755 1815]
memory = 3631.0016
int3c2e [1/1], AO [0:29], ncol = 9801
kpt = [ 0.          0.78920454 -1.18380681]
adapted_ji_idx = [ 408  438 1008 1054 1864 1926]
memory = 3632.156672
int3c2e [1/1], AO [0:29], ncol = 9801
kpt = [-0.78920454  0.         -0.39460227]
adapted_ji_idx = [ 465  497 1097 1145 1985 2049]
memory = 3632.463872
int3c2e [1/1], AO [0:29], ncol = 9801
Symmetry pattern (k + [ 0.78920454  0.         -0.39460227])*a= 2n pi
    make_kpt for [137 146 153 156]
kpt = [ 1.57840907 -0.78920454 -0.39460227]
adapted_ji_idx = [1190 1240]
memory = 3631.448064
int3c2e [1/1], AO [0:29], ncol = 9801
kpt = [ 0.78920454 -1.57840907  0.39460227]
adapted_ji_idx = [1287 1339]
memory = 3630.8992
int3c2e [1/1], AO [0:29], ncol = 9801
kpt = [ 0.78920454  0.         -1.18380681]
adapted_ji_idx = [1380 1434 1602 1660 1840 1902]
memory = 3631.067136
int3c2e [1/1], AO [0:29], ncol = 9801
kpt = [ 0.         -0.78920454 -0.39460227]
adapted_ji_idx = [1485 1541 1715 1775 1961 2025]
memory = 3630.723072
int3c2e [1/1], AO [0:29], ncol = 9801
Cholesky decomposition for j2c at kpt 32
DF metric linear dependency for kpt 32
cond = 1.931e+17, drop 23 bfns
Symmetry pattern (k - [ 0.98650567  0.19730113 -0.5919034 ])*a= 2n pi
    make_kpt for uniq_kptji_ids [32 42 70 71]
kpt = [ 0.98650567  0.19730113 -0.5919034 ]
adapted_ji_idx = [ 143  221  315  551  693  851 1215 1421 1643]
memory = 3634.225152
int3c2e [1/1], AO [0:29], ncol = 9801
kpt = [ 0.19730113 -0.5919034   0.19730113]
adapted_ji_idx = [ 157  176  196  239  262  286  337  364  392  581  616  652  727  766
  806  889  932  976 1261 1312 1364 1471 1526 1582 1697 1756 1816]
memory = 3631.833088
int3c2e [1/1], AO [0:29], ncol = 9801
kpt = [ 0.19730113  0.98650567 -1.38110794]
adapted_ji_idx = [ 409 1009 1865]
memory = 3632.35328
int3c2e [1/1], AO [0:29], ncol = 9801
kpt = [-0.5919034   0.19730113 -0.5919034 ]
adapted_ji_idx = [ 435  466  498 1051 1098 1146 1923 1986 2050]
memory = 3633.860608
int3c2e [1/1], AO [0:29], ncol = 9801
Symmetry pattern (k + [ 0.98650567  0.19730113 -0.5919034 ])*a= 2n pi
    make_kpt for [136 150 152 157]
kpt = [ 1.38110794 -0.98650567 -0.19730113]
adapted_ji_idx = [1189 1239 1290]
memory = 3633.655808
int3c2e [1/1], AO [0:29], ncol = 9801
kpt = [ 0.5919034  -1.77571021  0.5919034 ]
adapted_ji_idx = [1338]
memory = 3634.102272
int3c2e [1/1], AO [0:29], ncol = 9801
kpt = [ 0.5919034  -0.19730113 -0.98650567]
adapted_ji_idx = [1379 1433 1488 1601 1659 1718 1839 1901 1964]
memory = 3634.159616
int3c2e [1/1], AO [0:29], ncol = 9801
kpt = [-0.19730113 -0.98650567 -0.19730113]
adapted_ji_idx = [1540 1774 2024]
memory = 3633.836032
int3c2e [1/1], AO [0:29], ncol = 9801
Cholesky decomposition for j2c at kpt 33
DF metric linear dependency for kpt 33
cond = 1.037e+17, drop 23 bfns
Symmetry pattern (k - [ 0.5919034  -0.5919034   0.19730113])*a= 2n pi
    make_kpt for uniq_kptji_ids [33 60]
kpt = [ 0.5919034  -0.5919034   0.19730113]
adapted_ji_idx = [ 144  162  181  201  222  244  267  291  552  586  621  657  694  732
  771  811 1216 1266 1317 1369 1422 1476 1531 1587]
memory = 3637.026816
int3c2e [1/1], AO [0:29], ncol = 9801
kpt = [-0.19730113  0.19730113 -0.5919034 ]
adapted_ji_idx = [ 300  326  353  381  410  440  471  503  836  878  921  965 1010 1056
 1103 1151 1628 1686 1745 1805 1866 1928 1991 2055]
memory = 3633.750016
int3c2e [1/1], AO [0:29], ncol = 9801
Symmetry pattern (k + [ 0.5919034  -0.5919034   0.19730113])*a= 2n pi
    make_kpt for [131 158]
kpt = [ 0.98650567 -0.98650567 -0.19730113]
adapted_ji_idx = [1184 1234 1285 1337 1390 1444 1499 1555]
memory = 3634.016256
int3c2e [1/1], AO [0:29], ncol = 9801
kpt = [ 0.19730113 -0.19730113 -0.98650567]
adapted_ji_idx = [1596 1654 1713 1773 1834 1896 1959 2023]
memory = 3633.983488
int3c2e [1/1], AO [0:29], ncol = 9801
Cholesky decomposition for j2c at kpt 34
Symmetry pattern (k - [ 0.78920454 -0.39460227  0.        ])*a= 2n pi
    make_kpt for uniq_kptji_ids [34 51 61 66]
kpt = [ 0.78920454 -0.39460227  0.        ]
adapted_ji_idx = [ 145  163  182  223  245  268  553  587  622  695  733  772 1217 1267
 1318 1423 1477 1532]
memory = 3633.717248
int3c2e [1/1], AO [0:29], ncol = 9801
kpt = [ 0.         -1.18380681  0.78920454]
adapted_ji_idx = [ 198  288  654  808 1366 1584]
memory = 3634.429952
int3c2e [1/1], AO [0:29], ncol = 9801
kpt = [ 0.          0.39460227 -0.78920454]
adapted_ji_idx = [ 301  327  354  411  441  472  837  879  922 1011 1057 1104 1629 1687
 1746 1867 1929 1992]
memory = 3635.87584
int3c2e [1/1], AO [0:29], ncol = 9801
kpt = [-0.78920454 -0.39460227  0.        ]
adapted_ji_idx = [ 378  500  962 1148 1802 2052]
memory = 3636.20352
int3c2e [1/1], AO [0:29], ncol = 9801
Symmetry pattern (k + [ 0.78920454 -0.39460227  0.        ])*a= 2n pi
    make_kpt for [134 141 161 162]
kpt = [ 1.57840907 -0.39460227 -0.78920454]
adapted_ji_idx = [1187 1393]
memory = 3635.79392
int3c2e [1/1], AO [0:29], ncol = 9801
kpt = [ 0.78920454 -1.18380681  0.        ]
adapted_ji_idx = [1233 1284 1336 1443 1498 1554]
memory = 3635.687424
int3c2e [1/1], AO [0:29], ncol = 9801
kpt = [ 0.78920454  0.39460227 -1.57840907]
adapted_ji_idx = [1599 1837]
memory = 3635.441664
int3c2e [1/1], AO [0:29], ncol = 9801
kpt = [ 0.         -0.39460227 -0.78920454]
adapted_ji_idx = [1653 1712 1772 1895 1958 2022]
memory = 3635.052544
int3c2e [1/1], AO [0:29], ncol = 9801
Cholesky decomposition for j2c at kpt 35
Symmetry pattern (k - [ 0.98650567 -0.19730113 -0.19730113])*a= 2n pi
    make_kpt for uniq_kptji_ids [35 47 62 65]
kpt = [ 0.98650567 -0.19730113 -0.19730113]
adapted_ji_idx = [ 146  164  224  246  554  588  696  734 1218 1268 1424 1478]
memory = 3635.638272
int3c2e [1/1], AO [0:29], ncol = 9801
kpt = [ 0.19730113 -0.98650567  0.5919034 ]
adapted_ji_idx = [ 179  199  265  289  619  655  769  809 1315 1367 1529 1585]
memory = 3636.77696
int3c2e [1/1], AO [0:29], ncol = 9801
kpt = [ 0.19730113  0.5919034  -0.98650567]
adapted_ji_idx = [ 302  328  412  442  838  880 1012 1058 1630 1688 1868 1930]
memory = 3635.564544
int3c2e [1/1], AO [0:29], ncol = 9801
kpt = [-0.5919034  -0.19730113 -0.19730113]
adapted_ji_idx = [ 351  379  469  501  919  963 1101 1149 1743 1803 1989 2053]
memory = 3635.871744
int3c2e [1/1], AO [0:29], ncol = 9801
Symmetry pattern (k + [ 0.98650567 -0.19730113 -0.19730113])*a= 2n pi
    make_kpt for [133 145 160 163]
kpt = [ 1.38110794 -0.5919034  -0.5919034 ]
adapted_ji_idx = [1186 1236 1392 1446]
memory = 3636.228096
int3c2e [1/1], AO [0:29], ncol = 9801
kpt = [ 0.5919034  -1.38110794  0.19730113]
adapted_ji_idx = [1283 1335 1497 1553]
memory = 3636.248576
int3c2e [1/1], AO [0:29], ncol = 9801
kpt = [ 0.5919034   0.19730113 -1.38110794]
adapted_ji_idx = [1598 1656 1836 1898]
memory = 3635.843072
int3c2e [1/1], AO [0:29], ncol = 9801
kpt = [-0.19730113 -0.5919034  -0.5919034 ]
adapted_ji_idx = [1711 1771 1957 2021]
memory = 3635.253248
int3c2e [1/1], AO [0:29], ncol = 9801
Cholesky decomposition for j2c at kpt 36
Symmetry pattern (k - [ 1.18380681  0.         -0.39460227])*a= 2n pi
    make_kpt for uniq_kptji_ids [36 43 63 64]
kpt = [ 1.18380681  0.         -0.39460227]
adapted_ji_idx = [ 147  225  555  697 1219 1425]
memory = 3635.044352
int3c2e [1/1], AO [0:29], ncol = 9801
kpt = [ 0.39460227 -0.78920454  0.39460227]
adapted_ji_idx = [ 161  180  200  243  266  290  585  620  656  731  770  810 1265 1316
 1368 1475 1530 1586]
memory = 3634.36032
int3c2e [1/1], AO [0:29], ncol = 9801
kpt = [ 0.39460227  0.78920454 -1.18380681]
adapted_ji_idx = [ 303  413  839 1013 1631 1869]
memory = 3637.530624
int3c2e [1/1], AO [0:29], ncol = 9801
kpt = [-0.39460227  0.         -0.39460227]
adapted_ji_idx = [ 325  352  380  439  470  502  877  920  964 1055 1102 1150 1685 1744
 1804 1927 1990 2054]
memory = 3637.00224
int3c2e [1/1], AO [0:29], ncol = 9801
Symmetry pattern (k + [ 1.18380681  0.         -0.39460227])*a= 2n pi
    make_kpt for [132 149 159 164]
kpt = [ 1.18380681 -0.78920454 -0.39460227]
adapted_ji_idx = [1185 1235 1286 1391 1445 1500]
memory = 3637.829632
int3c2e [1/1], AO [0:29], ncol = 9801
kpt = [ 0.39460227 -1.57840907  0.39460227]
adapted_ji_idx = [1334 1552]
memory = 3636.65408
int3c2e [1/1], AO [0:29], ncol = 9801
kpt = [ 0.39460227  0.         -1.18380681]
adapted_ji_idx = [1597 1655 1714 1835 1897 1960]
memory = 3636.568064
int3c2e [1/1], AO [0:29], ncol = 9801
kpt = [-0.39460227 -0.78920454 -0.39460227]
adapted_ji_idx = [1770 2020]
memory = 3635.310592
int3c2e [1/1], AO [0:29], ncol = 9801
Cholesky decomposition for j2c at kpt 37
Symmetry pattern (k - [ 0.78920454 -0.78920454  0.39460227])*a= 2n pi
    make_kpt for uniq_kptji_ids [37 53]
kpt = [ 0.78920454 -0.78920454  0.39460227]
adapted_ji_idx = [ 148  166  185  205  556  590  625  661 1220 1270 1321 1373]
memory = 3636.043776
int3c2e [1/1], AO [0:29], ncol = 9801
kpt = [ 0.          0.         -0.39460227]
adapted_ji_idx = [ 210  232  255  279  304  330  357  385  414  444  475  507  682  720
  759  799  840  882  925  969 1014 1060 1107 1155 1410 1464 1519 1575
 1632 1690 1749 1809 1870 1932 1995 2059]
memory = 3638.390784
int3c2e [1/1], AO [0:29], ncol = 9801
Symmetry pattern (k + [ 0.78920454 -0.78920454  0.39460227])*a= 2n pi
    make_kpt for [127 165]
kpt = [ 0.78920454 -0.78920454 -0.39460227]
adapted_ji_idx = [1180 1230 1281 1333 1386 1440 1495 1551 1608 1666 1725 1785]
memory = 3638.259712
int3c2e [1/1], AO [0:29], ncol = 9801
kpt = [ 0.          0.         -1.18380681]
adapted_ji_idx = [1830 1892 1955 2019]
memory = 3638.796288
int3c2e [1/1], AO [0:29], ncol = 9801
Cholesky decomposition for j2c at kpt 38
DF metric linear dependency for kpt 38
cond = 4.292e+17, drop 23 bfns
Symmetry pattern (k - [ 0.98650567 -0.5919034   0.19730113])*a= 2n pi
    make_kpt for uniq_kptji_ids [38 52 54 59]
kpt = [ 0.98650567 -0.5919034   0.19730113]
adapted_ji_idx = [ 149  167  186  557  591  626 1221 1271 1322]
memory = 3645.898752
int3c2e [1/1], AO [0:29], ncol = 9801
kpt = [ 0.19730113 -1.38110794  0.98650567]
adapted_ji_idx = [ 202  658 1370]
memory = 3638.349824
int3c2e [1/1], AO [0:29], ncol = 9801
kpt = [ 0.19730113  0.19730113 -0.5919034 ]
adapted_ji_idx = [ 211  233  256  305  331  358  415  445  476  683  721  760  841  883
  926 1015 1061 1108 1411 1465 1520 1633 1691 1750 1871 1933 1996]
memory = 3640.082432
int3c2e [1/1], AO [0:29], ncol = 9801
kpt = [-0.5919034  -0.5919034   0.19730113]
adapted_ji_idx = [ 276  382  504  796  966 1152 1572 1806 2056]
memory = 3639.1936
int3c2e [1/1], AO [0:29], ncol = 9801
Symmetry pattern (k + [ 0.98650567 -0.5919034   0.19730113])*a= 2n pi
    make_kpt for [130 140 168 169]
kpt = [ 1.38110794 -0.19730113 -0.98650567]
adapted_ji_idx = [1183 1389 1611]
memory = 3639.68512
int3c2e [1/1], AO [0:29], ncol = 9801
kpt = [ 0.5919034  -0.98650567 -0.19730113]
adapted_ji_idx = [1229 1280 1332 1439 1494 1550 1665 1724 1784]
memory = 3640.111104
int3c2e [1/1], AO [0:29], ncol = 9801
kpt = [ 0.5919034   0.5919034  -1.77571021]
adapted_ji_idx = [1833]
memory = 3640.27904
int3c2e [1/1], AO [0:29], ncol = 9801
kpt = [-0.19730113 -0.19730113 -0.98650567]
adapted_ji_idx = [1891 1954 2018]
memory = 3640.983552
int3c2e [1/1], AO [0:29], ncol = 9801
Cholesky decomposition for j2c at kpt 39
Symmetry pattern (k - [ 1.18380681 -0.39460227  0.        ])*a= 2n pi
    make_kpt for uniq_kptji_ids [39 48 55 58]
kpt = [ 1.18380681 -0.39460227  0.        ]
adapted_ji_idx = [ 150  168  558  592 1222 1272]
memory = 3640.516608
int3c2e [1/1], AO [0:29], ncol = 9801
kpt = [ 0.39460227 -1.18380681  0.78920454]
adapted_ji_idx = [ 183  203  623  659 1319 1371]
memory = 3639.76704
int3c2e [1/1], AO [0:29], ncol = 9801
kpt = [ 0.39460227  0.39460227 -0.78920454]
adapted_ji_idx = [ 212  234  306  332  416  446  684  722  842  884 1016 1062 1412 1466
 1634 1692 1872 1934]
memory = 3641.380864
int3c2e [1/1], AO [0:29], ncol = 9801
kpt = [-0.39460227 -0.39460227  0.        ]
adapted_ji_idx = [ 253  277  355  383  473  505  757  797  923  967 1105 1153 1517 1573
 1747 1807 1993 2057]
memory = 3641.643008
int3c2e [1/1], AO [0:29], ncol = 9801
Symmetry pattern (k + [ 1.18380681 -0.39460227  0.        ])*a= 2n pi
    make_kpt for [129 144 167 170]
kpt = [ 1.18380681 -0.39460227 -0.78920454]
adapted_ji_idx = [1182 1232 1388 1442 1610 1668]
memory = 3642.048512
int3c2e [1/1], AO [0:29], ncol = 9801
kpt = [ 0.39460227 -1.18380681  0.        ]
adapted_ji_idx = [1279 1331 1493 1549 1723 1783]
memory = 3641.266176
int3c2e [1/1], AO [0:29], ncol = 9801
kpt = [ 0.39460227  0.39460227 -1.57840907]
adapted_ji_idx = [1832 1894]
memory = 3640.291328
int3c2e [1/1], AO [0:29], ncol = 9801
kpt = [-0.39460227 -0.39460227 -0.78920454]
adapted_ji_idx = [1953 2017]
memory = 3640.406016
int3c2e [1/1], AO [0:29], ncol = 9801
Cholesky decomposition for j2c at kpt 40
Symmetry pattern (k - [ 1.38110794 -0.19730113 -0.19730113])*a= 2n pi
    make_kpt for uniq_kptji_ids [40 44 56 57]
kpt = [ 1.38110794 -0.19730113 -0.19730113]
adapted_ji_idx = [ 151  559 1223]
memory = 3640.40192
int3c2e [1/1], AO [0:29], ncol = 9801
kpt = [ 0.5919034  -0.98650567  0.5919034 ]
adapted_ji_idx = [ 165  184  204  589  624  660 1269 1320 1372]
memory = 3639.3984
int3c2e [1/1], AO [0:29], ncol = 9801
kpt = [ 0.5919034   0.5919034  -0.98650567]
adapted_ji_idx = [ 213  307  417  685  843 1017 1413 1635 1873]
memory = 3642.044416
int3c2e [1/1], AO [0:29], ncol = 9801
kpt = [-0.19730113 -0.19730113 -0.19730113]
adapted_ji_idx = [ 231  254  278  329  356  384  443  474  506  719  758  798  881  924
  968 1059 1106 1154 1463 1518 1574 1689 1748 1808 1931 1994 2058]
memory = 3641.634816
int3c2e [1/1], AO [0:29], ncol = 9801
Symmetry pattern (k + [ 1.38110794 -0.19730113 -0.19730113])*a= 2n pi
    make_kpt for [128 148 166 171]
kpt = [ 0.98650567 -0.5919034  -0.5919034 ]
adapted_ji_idx = [1181 1231 1282 1387 1441 1496 1609 1667 1726]
memory = 3641.888768
int3c2e [1/1], AO [0:29], ncol = 9801
kpt = [ 0.19730113 -1.38110794  0.19730113]
adapted_ji_idx = [1330 1548 1782]
memory = 3641.167872
int3c2e [1/1], AO [0:29], ncol = 9801
kpt = [ 0.19730113  0.19730113 -1.38110794]
adapted_ji_idx = [1831 1893 1956]
memory = 3640.061952
int3c2e [1/1], AO [0:29], ncol = 9801
kpt = [-0.5919034 -0.5919034 -0.5919034]
adapted_ji_idx = [2016]
memory = 3640.885248
int3c2e [1/1], AO [0:29], ncol = 9801
Cholesky decomposition for j2c at kpt 74
Symmetry pattern (k - [ 0.39460227 -0.39460227 -0.39460227])*a= 2n pi
    make_kpt for uniq_kptji_ids [74]
kpt = [ 0.39460227 -0.39460227 -0.39460227]
adapted_ji_idx = [ 528  562  597  633  670  708  747  787  828  870  913  957 1002 1048
 1095 1143 1192 1242 1293 1345 1398 1452 1507 1563 1620 1678 1737 1797
 1858 1920 1983 2047]
memory = 3640.619008
int3c2e [1/1], AO [0:29], ncol = 9801
Symmetry pattern (k + [ 0.39460227 -0.39460227 -0.39460227])*a= 2n pi
    make_kpt for [74]
Cholesky decomposition for j2c at kpt 75
Symmetry pattern (k - [ 0.5919034  -0.19730113 -0.5919034 ])*a= 2n pi
    make_kpt for uniq_kptji_ids [75 98]
kpt = [ 0.5919034  -0.19730113 -0.5919034 ]
adapted_ji_idx = [ 529  563  598  671  709  748  829  871  914 1003 1049 1096 1193 1243
 1294 1399 1453 1508 1621 1679 1738 1859 1921 1984]
memory = 3642.1632
int3c2e [1/1], AO [0:29], ncol = 9801
kpt = [-0.19730113 -0.98650567  0.19730113]
adapted_ji_idx = [ 630  784  954 1140 1342 1560 1794 2044]
memory = 3642.273792
int3c2e [1/1], AO [0:29], ncol = 9801
Symmetry pattern (k + [ 0.5919034  -0.19730113 -0.5919034 ])*a= 2n pi
    make_kpt for [77 90]
kpt = [ 0.98650567  0.19730113 -0.98650567]
adapted_ji_idx = [ 531  673  831 1005 1195 1401 1623 1861]
memory = 3642.077184
int3c2e [1/1], AO [0:29], ncol = 9801
kpt = [ 0.19730113 -0.5919034  -0.19730113]
adapted_ji_idx = [ 561  596  632  707  746  786  869  912  956 1047 1094 1142 1241 1292
 1344 1451 1506 1562 1677 1736 1796 1919 1982 2046]
memory = 3640.307712
int3c2e [1/1], AO [0:29], ncol = 9801
Cholesky decomposition for j2c at kpt 76
Symmetry pattern (k - [ 0.78920454  0.         -0.78920454])*a= 2n pi
    make_kpt for uniq_kptji_ids [76 94]
kpt = [ 0.78920454  0.         -0.78920454]
adapted_ji_idx = [ 530  564  672  710  830  872 1004 1050 1194 1244 1400 1454 1622 1680
 1860 1922]
memory = 3641.798656
int3c2e [1/1], AO [0:29], ncol = 9801
kpt = [ 0.         -0.78920454  0.        ]
adapted_ji_idx = [ 595  631  745  785  911  955 1093 1141 1291 1343 1505 1561 1735 1795
 1981 2045]
memory = 3641.430016
int3c2e [1/1], AO [0:29], ncol = 9801
Symmetry pattern (k + [ 0.78920454  0.         -0.78920454])*a= 2n pi
    make_kpt for [76 94]
Cholesky decomposition for j2c at kpt 78
Symmetry pattern (k - [ 0.5919034  -0.5919034  -0.19730113])*a= 2n pi
    make_kpt for uniq_kptji_ids [ 78 116]
kpt = [ 0.5919034  -0.5919034  -0.19730113]
adapted_ji_idx = [ 532  566  601  637  674  712  751  791  832  874  917  961 1196 1246
 1297 1349 1402 1456 1511 1567 1624 1682 1741 1801]
memory = 3642.003456
int3c2e [1/1], AO [0:29], ncol = 9801
kpt = [-0.19730113  0.19730113 -0.98650567]
adapted_ji_idx = [ 990 1036 1083 1131 1846 1908 1971 2035]
memory = 3641.700352
int3c2e [1/1], AO [0:29], ncol = 9801
Symmetry pattern (k + [ 0.5919034  -0.5919034  -0.19730113])*a= 2n pi
    make_kpt for [ 86 102]
kpt = [ 0.98650567 -0.98650567  0.19730113]
adapted_ji_idx = [ 540  574  609  645 1204 1254 1305 1357]
memory = 3641.434112
int3c2e [1/1], AO [0:29], ncol = 9801
kpt = [ 0.19730113 -0.19730113 -0.5919034 ]
adapted_ji_idx = [ 666  704  743  783  824  866  909  953  998 1044 1091 1139 1394 1448
 1503 1559 1616 1674 1733 1793 1854 1916 1979 2043]
memory = 3641.880576
int3c2e [1/1], AO [0:29], ncol = 9801
Cholesky decomposition for j2c at kpt 79
Symmetry pattern (k - [ 0.78920454 -0.39460227 -0.39460227])*a= 2n pi
    make_kpt for uniq_kptji_ids [ 79  99 117 122]
kpt = [ 0.78920454 -0.39460227 -0.39460227]
adapted_ji_idx = [ 533  567  602  675  713  752  833  875  918 1197 1247 1298 1403 1457
 1512 1625 1683 1742]
memory = 3641.888768
int3c2e [1/1], AO [0:29], ncol = 9801
kpt = [ 0.         -1.18380681  0.39460227]
adapted_ji_idx = [ 634  788  958 1346 1564 1798]
memory = 3642.028032
int3c2e [1/1], AO [0:29], ncol = 9801
kpt = [ 0.          0.39460227 -1.18380681]
adapted_ji_idx = [ 991 1037 1084 1847 1909 1972]
memory = 3641.401344
int3c2e [1/1], AO [0:29], ncol = 9801
kpt = [-0.78920454 -0.39460227 -0.39460227]
adapted_ji_idx = [1128 2032]
memory = 3641.106432
int3c2e [1/1], AO [0:29], ncol = 9801
Symmetry pattern (k + [ 0.78920454 -0.39460227 -0.39460227])*a= 2n pi
    make_kpt for [ 89  93 105 106]
kpt = [ 1.57840907 -0.39460227 -0.39460227]
adapted_ji_idx = [ 543 1207]
memory = 3640.672256
int3c2e [1/1], AO [0:29], ncol = 9801
kpt = [ 0.78920454 -1.18380681  0.39460227]
adapted_ji_idx = [ 573  608  644 1253 1304 1356]
memory = 3640.926208
int3c2e [1/1], AO [0:29], ncol = 9801
kpt = [ 0.78920454  0.39460227 -1.18380681]
adapted_ji_idx = [ 669  827 1001 1397 1619 1857]
memory = 3641.67168
int3c2e [1/1], AO [0:29], ncol = 9801
kpt = [ 0.         -0.39460227 -0.39460227]
adapted_ji_idx = [ 703  742  782  865  908  952 1043 1090 1138 1447 1502 1558 1673 1732
 1792 1915 1978 2042]
memory = 3640.23808
int3c2e [1/1], AO [0:29], ncol = 9801
Cholesky decomposition for j2c at kpt 80
Symmetry pattern (k - [ 0.98650567 -0.19730113 -0.5919034 ])*a= 2n pi
    make_kpt for uniq_kptji_ids [ 80  95 118 121]
kpt = [ 0.98650567 -0.19730113 -0.5919034 ]
adapted_ji_idx = [ 534  568  676  714  834  876 1198 1248 1404 1458 1626 1684]
memory = 3641.638912
int3c2e [1/1], AO [0:29], ncol = 9801
kpt = [ 0.19730113 -0.98650567  0.19730113]
adapted_ji_idx = [ 599  635  749  789  915  959 1295 1347 1509 1565 1739 1799]
memory = 3641.659392
int3c2e [1/1], AO [0:29], ncol = 9801
kpt = [ 0.19730113  0.5919034  -1.38110794]
adapted_ji_idx = [ 992 1038 1848 1910]
memory = 3640.573952
int3c2e [1/1], AO [0:29], ncol = 9801
kpt = [-0.5919034  -0.19730113 -0.5919034 ]
adapted_ji_idx = [1081 1129 1969 2033]
memory = 3640.725504
int3c2e [1/1], AO [0:29], ncol = 9801
Symmetry pattern (k + [ 0.98650567 -0.19730113 -0.5919034 ])*a= 2n pi
    make_kpt for [ 88  97 104 107]
kpt = [ 1.38110794 -0.5919034  -0.19730113]
adapted_ji_idx = [ 542  576 1206 1256]
memory = 3640.397824
int3c2e [1/1], AO [0:29], ncol = 9801
kpt = [ 0.5919034  -1.38110794  0.5919034 ]
adapted_ji_idx = [ 607  643 1303 1355]
memory = 3641.913344
int3c2e [1/1], AO [0:29], ncol = 9801
kpt = [ 0.5919034   0.19730113 -0.98650567]
adapted_ji_idx = [ 668  706  826  868 1000 1046 1396 1450 1618 1676 1856 1918]
memory = 3641.389056
int3c2e [1/1], AO [0:29], ncol = 9801
kpt = [-0.19730113 -0.5919034  -0.19730113]
adapted_ji_idx = [ 741  781  907  951 1089 1137 1501 1557 1731 1791 1977 2041]
memory = 3641.454592
int3c2e [1/1], AO [0:29], ncol = 9801
Cholesky decomposition for j2c at kpt 81
Symmetry pattern (k - [ 1.18380681  0.         -0.78920454])*a= 2n pi
    make_kpt for uniq_kptji_ids [ 81  91 119 120]
kpt = [ 1.18380681  0.         -0.78920454]
adapted_ji_idx = [ 535  677  835 1199 1405 1627]
memory = 3641.081856
int3c2e [1/1], AO [0:29], ncol = 9801
kpt = [ 0.39460227 -0.78920454  0.        ]
adapted_ji_idx = [ 565  600  636  711  750  790  873  916  960 1245 1296 1348 1455 1510
 1566 1681 1740 1800]
memory = 3641.52832
int3c2e [1/1], AO [0:29], ncol = 9801
kpt = [ 0.39460227  0.78920454 -1.57840907]
adapted_ji_idx = [ 993 1849]
memory = 3641.847808
int3c2e [1/1], AO [0:29], ncol = 9801
kpt = [-0.39460227  0.         -0.78920454]
adapted_ji_idx = [1035 1082 1130 1907 1970 2034]
memory = 3641.61024
int3c2e [1/1], AO [0:29], ncol = 9801
Symmetry pattern (k + [ 1.18380681  0.         -0.78920454])*a= 2n pi
    make_kpt for [ 87 101 103 108]
kpt = [ 1.18380681 -0.78920454  0.        ]
adapted_ji_idx = [ 541  575  610 1205 1255 1306]
memory = 3640.254464
int3c2e [1/1], AO [0:29], ncol = 9801
kpt = [ 0.39460227 -1.57840907  0.78920454]
adapted_ji_idx = [ 642 1354]
memory = 3640.254464
int3c2e [1/1], AO [0:29], ncol = 9801
kpt = [ 0.39460227  0.         -0.78920454]
adapted_ji_idx = [ 667  705  744  825  867  910  999 1045 1092 1395 1449 1504 1617 1675
 1734 1855 1917 1980]
memory = 3640.901632
int3c2e [1/1], AO [0:29], ncol = 9801
kpt = [-0.39460227 -0.78920454  0.        ]
adapted_ji_idx = [ 780  950 1136 1556 1790 2040]
memory = 3642.384384
int3c2e [1/1], AO [0:29], ncol = 9801
Cholesky decomposition for j2c at kpt 82
Symmetry pattern (k - [ 0.78920454 -0.78920454  0.        ])*a= 2n pi
    make_kpt for uniq_kptji_ids [ 82 109]
kpt = [ 0.78920454 -0.78920454  0.        ]
adapted_ji_idx = [ 536  570  605  641  678  716  755  795 1200 1250 1301 1353 1406 1460
 1515 1571]
memory = 3642.011648
int3c2e [1/1], AO [0:29], ncol = 9801
kpt = [ 0.          0.         -0.78920454]
adapted_ji_idx = [ 820  862  905  949  994 1040 1087 1135 1612 1670 1729 1789 1850 1912
 1975 2039]
memory = 3642.12224
int3c2e [1/1], AO [0:29], ncol = 9801
Symmetry pattern (k + [ 0.78920454 -0.78920454  0.        ])*a= 2n pi
    make_kpt for [ 82 109]
Cholesky decomposition for j2c at kpt 83
Symmetry pattern (k - [ 0.98650567 -0.5919034  -0.19730113])*a= 2n pi
    make_kpt for uniq_kptji_ids [ 83 100 110 115]
kpt = [ 0.98650567 -0.5919034  -0.19730113]
adapted_ji_idx = [ 537  571  606  679  717  756 1201 1251 1302 1407 1461 1516]
memory = 3641.663488
int3c2e [1/1], AO [0:29], ncol = 9801
kpt = [ 0.19730113 -1.38110794  0.5919034 ]
adapted_ji_idx = [ 638  792 1350 1568]
memory = 3641.102336
int3c2e [1/1], AO [0:29], ncol = 9801
kpt = [ 0.19730113  0.19730113 -0.98650567]
adapted_ji_idx = [ 821  863  906  995 1041 1088 1613 1671 1730 1851 1913 1976]
memory = 3640.901632
int3c2e [1/1], AO [0:29], ncol = 9801
kpt = [-0.5919034  -0.5919034  -0.19730113]
adapted_ji_idx = [ 946 1132 1786 2036]
memory = 3640.25856
int3c2e [1/1], AO [0:29], ncol = 9801
Symmetry pattern (k + [ 0.98650567 -0.5919034  -0.19730113])*a= 2n pi
    make_kpt for [ 85  92 112 113]
kpt = [ 1.38110794 -0.19730113 -0.5919034 ]
adapted_ji_idx = [ 539  681 1203 1409]
memory = 3640.971264
int3c2e [1/1], AO [0:29], ncol = 9801
kpt = [ 0.5919034  -0.98650567  0.19730113]
adapted_ji_idx = [ 569  604  640  715  754  794 1249 1300 1352 1459 1514 1570]
memory = 3641.561088
int3c2e [1/1], AO [0:29], ncol = 9801
kpt = [ 0.5919034   0.5919034  -1.38110794]
adapted_ji_idx = [ 823  997 1615 1853]
memory = 3642.441728
int3c2e [1/1], AO [0:29], ncol = 9801
kpt = [-0.19730113 -0.19730113 -0.5919034 ]
adapted_ji_idx = [ 861  904  948 1039 1086 1134 1669 1728 1788 1911 1974 2038]
memory = 3641.663488
int3c2e [1/1], AO [0:29], ncol = 9801
Cholesky decomposition for j2c at kpt 84
Symmetry pattern (k - [ 1.18380681 -0.39460227 -0.39460227])*a= 2n pi
    make_kpt for uniq_kptji_ids [ 84  96 111 114]
kpt = [ 1.18380681 -0.39460227 -0.39460227]
adapted_ji_idx = [ 538  572  680  718 1202 1252 1408 1462]
memory = 3642.2656
int3c2e [1/1], AO [0:29], ncol = 9801
kpt = [ 0.39460227 -1.18380681  0.39460227]
adapted_ji_idx = [ 603  639  753  793 1299 1351 1513 1569]
memory = 3642.277888
int3c2e [1/1], AO [0:29], ncol = 9801
kpt = [ 0.39460227  0.39460227 -1.18380681]
adapted_ji_idx = [ 822  864  996 1042 1614 1672 1852 1914]
memory = 3642.056704
int3c2e [1/1], AO [0:29], ncol = 9801
kpt = [-0.39460227 -0.39460227 -0.39460227]
adapted_ji_idx = [ 903  947 1085 1133 1727 1787 1973 2037]
memory = 3642.093568
int3c2e [1/1], AO [0:29], ncol = 9801
Symmetry pattern (k + [ 1.18380681 -0.39460227 -0.39460227])*a= 2n pi
    make_kpt for [ 84  96 111 114]
    CPU time for j3c 338223.90 sec, wall time  12040.30 sec
    CPU time for Init get_k_kpts 338224.50 sec, wall time  12040.32 sec
    CPU time for get_k_kpts: make_kpt ki>=kj (0,*)      6.54 sec, wall time      0.35 sec
    CPU time for get_k_kpts: make_kpt ki>=kj (1,*)      9.35 sec, wall time      0.31 sec
    CPU time for get_k_kpts: make_kpt ki>=kj (2,*)     15.43 sec, wall time      0.49 sec
    CPU time for get_k_kpts: make_kpt ki>=kj (3,*)     17.07 sec, wall time      0.54 sec
    CPU time for get_k_kpts: make_kpt ki>=kj (4,*)     18.61 sec, wall time      0.59 sec
    CPU time for get_k_kpts: make_kpt ki>=kj (5,*)     22.85 sec, wall time      0.72 sec
    CPU time for get_k_kpts: make_kpt ki>=kj (6,*)     25.91 sec, wall time      0.82 sec
    CPU time for get_k_kpts: make_kpt ki>=kj (7,*)     29.53 sec, wall time      0.93 sec
    CPU time for get_k_kpts: make_kpt ki>=kj (8,*)     30.12 sec, wall time      0.96 sec
    CPU time for get_k_kpts: make_kpt ki>=kj (9,*)     37.80 sec, wall time      1.19 sec
    CPU time for get_k_kpts: make_kpt ki>=kj (10,*)     41.11 sec, wall time      1.29 sec
    CPU time for get_k_kpts: make_kpt ki>=kj (11,*)     43.34 sec, wall time      1.36 sec
    CPU time for get_k_kpts: make_kpt ki>=kj (12,*)     47.05 sec, wall time      1.49 sec
    CPU time for get_k_kpts: make_kpt ki>=kj (13,*)     57.11 sec, wall time      1.84 sec
    CPU time for get_k_kpts: make_kpt ki>=kj (14,*)     62.94 sec, wall time      2.01 sec
    CPU time for get_k_kpts: make_kpt ki>=kj (15,*)     60.92 sec, wall time      1.93 sec
    CPU time for get_k_kpts: make_kpt ki>=kj (16,*)     61.90 sec, wall time      1.96 sec
    CPU time for get_k_kpts: make_kpt ki>=kj (17,*)     62.94 sec, wall time      1.98 sec
    CPU time for get_k_kpts: make_kpt ki>=kj (18,*)     68.65 sec, wall time      2.16 sec
    CPU time for get_k_kpts: make_kpt ki>=kj (19,*)     70.68 sec, wall time      2.23 sec
    CPU time for get_k_kpts: make_kpt ki>=kj (20,*)     74.87 sec, wall time      2.36 sec
    CPU time for get_k_kpts: make_kpt ki>=kj (21,*)     77.53 sec, wall time      2.43 sec
    CPU time for get_k_kpts: make_kpt ki>=kj (22,*)     80.41 sec, wall time      2.54 sec
    CPU time for get_k_kpts: make_kpt ki>=kj (23,*)     88.33 sec, wall time      2.80 sec
    CPU time for get_k_kpts: make_kpt ki>=kj (24,*)     85.79 sec, wall time      2.70 sec
    CPU time for get_k_kpts: make_kpt ki>=kj (25,*)     89.98 sec, wall time      2.83 sec
    CPU time for get_k_kpts: make_kpt ki>=kj (26,*)     95.05 sec, wall time      2.99 sec
    CPU time for get_k_kpts: make_kpt ki>=kj (27,*)     98.31 sec, wall time      3.09 sec
    CPU time for get_k_kpts: make_kpt ki>=kj (28,*)    100.32 sec, wall time      3.15 sec
    CPU time for get_k_kpts: make_kpt ki>=kj (29,*)    108.97 sec, wall time      3.46 sec
    CPU time for get_k_kpts: make_kpt ki>=kj (30,*)    116.21 sec, wall time      3.66 sec
    CPU time for get_k_kpts: make_kpt ki>=kj (31,*)    119.90 sec, wall time      3.77 sec
    CPU time for get_k_kpts: make_kpt ki>=kj (32,*)    123.50 sec, wall time      3.90 sec
    CPU time for get_k_kpts: make_kpt ki>=kj (33,*)    119.87 sec, wall time      3.77 sec
    CPU time for get_k_kpts: make_kpt ki>=kj (34,*)    121.22 sec, wall time      3.81 sec
    CPU time for get_k_kpts: make_kpt ki>=kj (35,*)    127.19 sec, wall time      4.01 sec
    CPU time for get_k_kpts: make_kpt ki>=kj (36,*)    127.32 sec, wall time      4.00 sec
    CPU time for get_k_kpts: make_kpt ki>=kj (37,*)    143.11 sec, wall time      4.49 sec
    CPU time for get_k_kpts: make_kpt ki>=kj (38,*)    138.03 sec, wall time      4.34 sec
    CPU time for get_k_kpts: make_kpt ki>=kj (39,*)    140.75 sec, wall time      4.42 sec
    CPU time for get_k_kpts: make_kpt ki>=kj (40,*)    152.64 sec, wall time      4.82 sec
    CPU time for get_k_kpts: make_kpt ki>=kj (41,*)    150.90 sec, wall time      4.78 sec
    CPU time for get_k_kpts: make_kpt ki>=kj (42,*)    148.15 sec, wall time      4.66 sec
    CPU time for get_k_kpts: make_kpt ki>=kj (43,*)    152.99 sec, wall time      4.81 sec
    CPU time for get_k_kpts: make_kpt ki>=kj (44,*)    159.98 sec, wall time      5.02 sec
    CPU time for get_k_kpts: make_kpt ki>=kj (45,*)    162.01 sec, wall time      5.10 sec
    CPU time for get_k_kpts: make_kpt ki>=kj (46,*)    161.99 sec, wall time      5.11 sec
    CPU time for get_k_kpts: make_kpt ki>=kj (47,*)    175.03 sec, wall time      5.58 sec
    CPU time for get_k_kpts: make_kpt ki>=kj (48,*)    177.47 sec, wall time      5.62 sec
    CPU time for get_k_kpts: make_kpt ki>=kj (49,*)    168.80 sec, wall time      5.34 sec
    CPU time for get_k_kpts: make_kpt ki>=kj (50,*)    188.24 sec, wall time      5.92 sec
    CPU time for get_k_kpts: make_kpt ki>=kj (51,*)    166.14 sec, wall time      5.25 sec
    CPU time for get_k_kpts: make_kpt ki>=kj (52,*)    181.62 sec, wall time      5.73 sec
    CPU time for get_k_kpts: make_kpt ki>=kj (53,*)    188.69 sec, wall time      5.95 sec
    CPU time for get_k_kpts: make_kpt ki>=kj (54,*)    198.61 sec, wall time      6.24 sec
    CPU time for get_k_kpts: make_kpt ki>=kj (55,*)    189.28 sec, wall time      5.96 sec
    CPU time for get_k_kpts: make_kpt ki>=kj (56,*)    189.19 sec, wall time      5.95 sec
    CPU time for get_k_kpts: make_kpt ki>=kj (57,*)    193.26 sec, wall time      6.09 sec
    CPU time for get_k_kpts: make_kpt ki>=kj (58,*)    197.15 sec, wall time      6.19 sec
    CPU time for get_k_kpts: make_kpt ki>=kj (59,*)    196.01 sec, wall time      6.16 sec
    CPU time for get_k_kpts: make_kpt ki>=kj (60,*)    200.84 sec, wall time      6.32 sec
    CPU time for get_k_kpts: make_kpt ki>=kj (61,*)    201.02 sec, wall time      6.32 sec
    CPU time for get_k_kpts: make_kpt ki>=kj (62,*)    203.67 sec, wall time      6.40 sec
    CPU time for get_k_kpts: make_kpt ki>=kj (63,*)    210.23 sec, wall time      6.60 sec
Monkhorst pack size [4 4 4] ew_eta 1.3357296425370517 ew_cut 5.2643847102778265
Ewald components = 0, -0.753713792271532, 0.681728131632692
    CPU time for get_j pass 1     95.82 sec, wall time      3.13 sec
    CPU time for get_j pass 2      7.61 sec, wall time      2.01 sec
    CPU time for vj and vk 345615.74 sec, wall time  12275.25 sec
Ewald components = 9.1775830151223e-178, -596.417259326552, 523.385019500803
E1 = (-248.6190294286434-1.704955350078502e-15j)  E_coul = (45.93988731092151-8.906449796425298e-16j)
init E= -275.71138194347
cond(S) = [7.83467950e+07 1.92289142e+07 3.12664062e+07 1.92289142e+07
 1.92289142e+07 1.82502260e+08 5.29540396e+08 3.54362435e+07
 3.12664063e+07 5.29540419e+08 2.19833434e+09 5.29540380e+08
 1.92289142e+07 3.54362435e+07 5.29540361e+08 1.82502259e+08
 1.92289142e+07 1.82502297e+08 5.29539033e+08 3.54362416e+07
 1.82502298e+08 1.92289142e+07 3.54362400e+07 5.29538405e+08
 5.29539055e+08 3.54362400e+07 5.29538764e+08 2.35326726e+09
 3.54362418e+07 5.29538412e+08 2.35326723e+09 5.29538906e+08
 3.12664042e+07 5.29538939e+08 2.19837241e+09 5.29538954e+08
 5.29538902e+08 3.54362401e+07 5.29538139e+08 2.35327597e+09
 2.19837178e+09 5.29538158e+08 3.12664052e+07 5.29538144e+08
 5.29538940e+08 2.35327594e+09 5.29538139e+08 3.54362400e+07
 1.92289142e+07 3.54362417e+07 5.29539055e+08 1.82502296e+08
 3.54362418e+07 5.29538958e+08 2.35326702e+09 5.29538413e+08
 5.29539088e+08 2.35326739e+09 5.29538780e+08 3.54362399e+07
 1.82502298e+08 5.29538447e+08 3.54362400e+07 1.92289142e+07]
    CPU time for initialize scf 354212.25 sec, wall time  12553.54 sec
HOMO = 0.132569253091  LUMO = 0.198726520735
     k-point                  mo_energy
   0 ( 0.000  0.000  0.000)   [-48.34398079 -20.1809168   -3.28781657  -1.91519456  -1.63913199
  -1.63913172  -1.63909965   0.13200835   0.13200844   0.13256925] [  0.19872652   1.10058376   1.10063211   1.10063217   1.25061538
   1.33615714   1.33622004   1.48046773   1.48069386   1.48069425
   2.00850724   2.00850826   2.00855034   2.04888447   2.46451129
   2.46451483   2.46469628   2.66963726   2.66969891   2.71912557
   2.71918292   2.71919304   2.93855381   3.14200644   3.14209595
   3.4358399    3.43584741   3.43591484   3.50441827   3.50447055
   3.50447989   5.42560271   5.42561049   5.42561185   5.94141357
   6.05013704   6.0502394    6.05047292   6.05047728   6.05052259
   6.10123747   6.18705177   6.18707786   6.18707825   6.32383597
   6.32383605   6.32386039   7.15375984   7.15377143   7.1537921
   7.89589747   7.95341931   7.95343393   7.95343612   8.17018348
   8.17019922   9.36959283   9.36961043   9.36964101  16.38959207
  16.46250778  16.46250818  16.46250925  16.68392197  16.68395963
  16.68396024  17.55483924  20.23889897  20.23889968  20.23891865
  20.37455126  20.37458281  27.44199659  27.44199681  27.44204099
  30.42477874  34.55945886  34.55949094  34.55949196  44.46852625
  44.46858403  44.46858412  44.49130417  44.49138199  78.30114023
 139.36119109 139.36119111 139.36122506 151.64542302]
   1 (-0.000 -0.000  0.250)   [-48.34352632 -20.17696429  -3.1642082   -1.66507954  -1.63910279
  -1.6390771   -1.25918624  -0.08080884   0.11682659   0.11747204] [  0.50696887   0.94610693   1.13804746   1.13806989   1.2874716
   1.28760093   1.3694216    1.58977409   1.64004109   1.64018272
   1.84517085   1.94224667   1.94233514   2.22857366   2.2367495
   2.23675591   2.63083241   2.63090175   2.63344558   2.79972813
   2.88960197   2.91379503   2.91384791   3.10497896   3.19053225
   3.19054266   3.25627308   3.29981024   3.2998531    3.61827124
   3.61829828   4.37259288   4.89785121   4.8978703    5.58881061
   5.82359768   5.82361163   5.88308101   5.89906344   5.89906811
   6.01384184   6.16393375   6.27693621   6.29378332   6.29378961
   6.65927255   6.65930018   6.82928831   7.0124225    7.01244851
   7.3892774    7.40919681   7.40920163   7.74748583   7.85641364
   7.85642315   8.62418991   8.83090942   8.83091195  16.41206756
  16.4672573   16.47363914  16.47364476  16.54267438  16.54269276
  16.62241653  17.51354863  20.24490216  20.2756848   20.27568904
  20.46238647  20.46240028  27.36049301  27.36052213  27.70641483
  30.48098273  34.42590786  34.47698959  34.47701102  44.39907501
  44.43440227  44.43444074  44.56402331  44.56410086  78.28415697
 139.29588055 139.29590313 139.54989881 151.90074043]
   2 (-0.000 -0.000  0.500)   [-48.34341295 -20.17487854  -3.14264118  -1.65481198  -1.63905916
  -1.63903938  -0.88475856  -0.19555935   0.10243193   0.10337391] [  0.71878465   0.88182837   1.12960184   1.1296054    1.31939334
   1.38083045   1.38101509   1.60481976   1.70031886   1.70043642
   1.80295441   1.80311425   2.17931556   2.22671158   2.3225598
   2.32262706   2.51331507   2.54715398   2.54715772   2.61231862
   2.80107437   2.80113179   2.90875579   2.90897744   3.03985354
   3.03990542   3.18265193   3.30663537   3.30668846   3.57337
   3.57337273   4.23274351   4.32231608   4.32235047   5.04265779
   5.33910121   5.33910628   5.79896491   5.82852534   5.82853777
   5.9574884    6.13581876   6.21889886   6.2188999    6.63775836
   6.7713019    6.7713025    6.85191833   6.85195554   6.95028795
   7.2858091    7.35646759   7.35649938   7.69795638   7.69796897
   7.90807688   8.60417124   8.60418146   8.93322902  16.41347658
  16.44617046  16.44620166  16.47296647  16.52879777  16.53450249
  16.53451127  16.70206001  20.21451023  20.23865457  20.23866503
  20.52850872  20.5285147   27.2468083   27.24683685  27.97099285
  30.90639857  34.49999926  34.50002099  34.63310303  44.39029633
  44.39033293  44.44570428  44.63742215  44.63749754  78.26144967
 139.21682572 139.21684823 139.7314168  152.65342476]
   3 (-0.000 -0.000  0.750)   [-48.34352876 -20.17696368  -3.16420814  -1.66507978  -1.63910275
  -1.63907746  -1.25918627  -0.08080886   0.11682655   0.11747203] [  0.50696882   0.94610691   1.13804741   1.13806989   1.28747153
   1.28760096   1.36942158   1.58977409   1.64004105   1.64018275
   1.84517083   1.94224667   1.94233515   2.22857363   2.23674951
   2.23675587   2.63083243   2.63090178   2.63344559   2.79972813
   2.88960184   2.91379509   2.91384781   3.1049788    3.19053226
   3.19054257   3.25627303   3.29981027   3.29985305   3.61827123
   3.61829834   4.37259271   4.89785156   4.89786983   5.58881027
   5.82359775   5.82361153   5.88308091   5.89906352   5.89906809
   6.01384201   6.16393374   6.27693601   6.29378349   6.2937896
   6.65927248   6.6592998    6.82928832   7.01242282   7.01244812
   7.38927736   7.40919673   7.4092014    7.74748573   7.85641365
   7.8564232    8.62418973   8.83090955   8.83091133  16.41206753
  16.46725724  16.4736391   16.47364465  16.54267431  16.5426927
  16.62241652  17.51354808  20.24490218  20.2756849   20.27568912
  20.46238654  20.4624004   27.36049298  27.36052212  27.70641481
  30.48098272  34.42590786  34.47698963  34.47701107  44.39907501
  44.43440227  44.43444074  44.56402331  44.56410086  78.28415696
 139.29588055 139.29590313 139.54989881 151.90074043]
   4 ( 0.000  0.250 -0.000)   [-48.34352587 -20.17696364  -3.16420755  -1.66507917  -1.63910247
  -1.63907664  -1.25918619  -0.08080882   0.11682661   0.11747205] [  0.50696892   0.94610694   1.13804746   1.13806991   1.2874716
   1.28760096   1.36942167   1.58977413   1.64004111   1.64018275
   1.84517092   1.94224669   1.94233514   2.22857374   2.23674953
   2.23675592   2.63083242   2.63090178   2.63344574   2.79972815
   2.88960253   2.91379508   2.91384796   3.10498037   3.19053234
   3.19054268   3.25627492   3.2998103    3.29985309   3.6182713
   3.61829836   4.37260403   4.89785189   4.89787436   5.58881149
   5.82359781   5.82361198   5.883082     5.89906438   5.8990684
   6.01384255   6.16393374   6.2769385    6.29378362   6.29379059
   6.65927299   6.65930195   6.82928888   7.01242316   7.01245323
   7.3892778    7.40919705   7.40920311   7.74748605   7.85641363
   7.85642325   8.62419205   8.83090991   8.83091503  16.4120677
  16.46725731  16.47363922  16.4736449   16.54267452  16.54269294
  16.62241694  17.51354949  20.24490229  20.2756849   20.27568906
  20.46238664  20.46240078  27.36049307  27.36052213  27.70641505
  30.48098284  34.42590797  34.47698965  34.47701122  44.39907502
  44.43440227  44.43444075  44.56402332  44.56410087  78.28415699
 139.29588055 139.29590313 139.54989883 151.90074046]
   5 ( 0.000  0.250  0.250)   [-48.34346664 -20.17637822  -3.15333663  -1.65919693  -1.64064407
[...]
   1.36923953   1.54252585   1.67232798   1.7326193    1.9689085
   1.96890876   1.98625471   2.04052547   2.12125846   2.12125854
   2.29233149   2.49818613   2.60053057   2.61010146   2.61010213
   2.67484197   2.67484301   2.67941833   2.75384568   2.88643442
   2.99931037   2.99931064   3.15532409   3.30995297   3.83622461
   3.83622512   3.91360223   4.65474915   4.90892299   5.43896946
   5.4389698    5.53193162   5.67060116   5.95449858   6.16652647
   6.16652668   6.20858896   6.50441741   6.53318263   6.53318324
   6.54941015   6.69540339   6.69540378   6.80889882   7.35406499
   7.3651461    7.4154241    7.64075702   7.64075705   8.08650829
   8.08650886   8.73633644   9.38544893   9.43682454  16.3364995
  16.35161155  16.35161187  16.35344833  16.40285674  16.40285689
  16.4127861   19.05885975  19.93006213  20.07828963  20.07828975
  20.14795891  20.18090771  27.80348013  27.80348026  28.26327399
  31.51018976  34.33359895  34.33359918  34.68250182  44.43097166
  44.55744671  44.55744674  44.93004856  45.04058351  78.17101927
 139.65287275 139.65287278 139.9544983  153.62694338]
  55 ( 0.750  0.250  0.750)   [-4.84571719e+01 -1.99839716e+01 -3.19572186e+00 -1.71956018e+00
 -1.71814014e+00 -1.71772706e+00 -7.06780982e-01 -8.37673641e-02
  6.41800481e-05  3.67114725e-02] [  0.85780936   0.95273524   1.01336122   1.19509987   1.24707727
   1.46161541   1.54724236   1.62202406   1.65660659   1.77929097
   1.83819813   2.00359677   2.09687206   2.18029666   2.2123008
   2.32382931   2.37474011   2.50445764   2.54093968   2.618455
   2.655905     2.78980239   2.91337603   2.98799959   3.03414014
   3.13726984   3.25125741   3.29730112   3.29803739   3.50596477
   3.60843436   3.87160754   4.44121534   4.69994494   5.52096991
   5.55040213   5.65626913   5.75109136   5.8374339    5.9874584
   6.12189162   6.20024713   6.29346115   6.32829409   6.53817926
   6.55091199   6.57657965   6.65168814   6.72300529   6.92398869
   7.54620002   7.6723123    7.7137301    7.89115088   7.90836538
   8.15936391   8.44462903   8.72317675   9.59709694  16.34061807
  16.35687565  16.36999664  16.39444655  16.4104776   16.41732503
  16.42985179  18.76023329  20.0382374   20.06837203  20.09838418
  20.21812057  20.28942702  27.5573622   27.57276646  27.96335504
  31.28648513  34.42583015  34.43908147  34.51489445  44.54758394
  44.58511865  44.58698599  44.87613346  44.90200548  78.16159729
 139.48847353 139.50009634 139.78049017 152.9711781 ]
  56 ( 0.750  0.500  0.000)   [-4.84571730e+01 -1.99839712e+01 -3.19572173e+00 -1.71956046e+00
 -1.71814016e+00 -1.71772690e+00 -7.06780993e-01 -8.37673537e-02
  6.42160602e-05  3.67114150e-02] [  0.85780937   0.95273522   1.01336123   1.19509989   1.24707725
   1.46161545   1.54724232   1.622024     1.6566066    1.77929114
   1.83819804   2.003597     2.09687279   2.18029679   2.21230202
   2.32382879   2.37473931   2.50445779   2.54093926   2.61845498
   2.65590588   2.78980202   2.91337595   2.9879994    3.03414046
   3.13726992   3.25125731   3.29730481   3.29803984   3.5059676
   3.60843466   3.87160718   4.44121565   4.69995009   5.52096996
   5.55040225   5.65627003   5.7510913    5.83743426   5.98745808
   6.12189189   6.20024715   6.29346388   6.32829399   6.5381793
   6.550913     6.57658115   6.65169707   6.723005     6.92399661
   7.54620129   7.6723126    7.71373018   7.89115085   7.90836555
   8.15936756   8.4446294    8.72317657   9.59711234  16.34061803
  16.35687592  16.36999674  16.39444631  16.4104776   16.41732515
  16.42985172  18.76025954  20.03823759  20.06837204  20.09838473
  20.21812091  20.2894271   27.55736212  27.57276672  27.9633552
  31.28648786  34.42583077  34.43908141  34.51489508  44.54758396
  44.58511863  44.58698601  44.87613345  44.90200597  78.1615974
 139.48847354 139.50009638 139.7804902  152.97117975]
  57 ( 0.750  0.500  0.250)   [-4.84571715e+01 -1.99839772e+01 -3.19566341e+00 -1.71891387e+00
 -1.71891385e+00 -1.71816769e+00 -6.98866332e-01 -4.68561075e-02
 -4.68560554e-02  6.02837948e-03] [  0.94600609   0.94600616   0.97496061   1.10869119   1.36923941
   1.36923953   1.54252584   1.67232797   1.7326193    1.96890852
   1.96890877   1.98625474   2.04052537   2.12125843   2.12125853
   2.29233151   2.49818615   2.60053056   2.61010141   2.61010212
   2.67484201   2.67484304   2.67941833   2.75383959   2.88643445
   2.99931036   2.99931057   3.15532324   3.3099503    3.83622476
   3.83622489   3.9136022    4.65472584   4.90892261   5.4389696
   5.43896963   5.53193169   5.67060093   5.9544988    6.16652649
   6.16652654   6.20858098   6.50441743   6.53318273   6.53318332
   6.54941007   6.6954033    6.69540371   6.80889472   7.35403069
   7.36514615   7.41542396   7.64075694   7.64075705   8.08650844
   8.08650881   8.73633644   9.38538816   9.43682437  16.3364995
  16.35161165  16.35161178  16.35344783  16.40285683  16.40285689
  16.41278608  19.05879962  19.93006236  20.0782895   20.07828965
  20.14795845  20.18090768  27.80348013  27.80348028  28.26326961
  31.51018973  34.33359908  34.33359913  34.68250173  44.43097167
  44.55744671  44.55744674  44.93004856  45.04058146  78.1710192
 139.65287275 139.65287278 139.95449802 153.62694338]
  58 ( 0.750  0.500  0.500)   [-4.84571716e+01 -1.99839715e+01 -3.19572172e+00 -1.71956019e+00
 -1.71814000e+00 -1.71772690e+00 -7.06780984e-01 -8.37674365e-02
  6.42219178e-05  3.67114859e-02] [  0.85780898   0.95273524   1.01336122   1.19509976   1.24707703
   1.4616131    1.54724155   1.62202278   1.65660458   1.77928653
   1.83819574   2.00359112   2.0968702    2.18029733   2.21230568
   2.32383401   2.37473748   2.50444236   2.54094269   2.6184555
   2.65590756   2.78980606   2.91337715   2.98800151   3.03414097
   3.13726864   3.25126471   3.29731935   3.29804409   3.50598298
   3.60843063   3.87161164   4.44122377   4.69996225   5.5209699
   5.55040184   5.65627188   5.75109383   5.8374336    5.98745787
   6.12189093   6.20024699   6.29346871   6.32829492   6.53818098
   6.55091453   6.57658413   6.65170471   6.72300479   6.92400639
   7.54620333   7.67231252   7.71373375   7.89115095   7.90836726
   8.15937189   8.44463169   8.72317747   9.59714099  16.34061805
  16.35687576  16.36999685  16.39444644  16.41047748  16.41732533
  16.42985226  18.76028302  20.03823721  20.06837234  20.09838517
  20.21812137  20.28942705  27.55736234  27.57276693  27.96335544
  31.28649108  34.42583131  34.43908197  34.51489529  44.54758398
  44.58511862  44.58698607  44.87613348  44.90200642  78.16159742
 139.48847354 139.50009639 139.78049025 152.9711799 ]
  59 ( 0.750  0.500  0.750)   [-4.84571719e+01 -1.99839668e+01 -3.19577997e+00 -1.71928047e+00
 -1.71826290e+00 -1.71731576e+00 -7.14670001e-01 -6.73369490e-02
 -3.44499559e-03  5.37820342e-02] [  0.86165425   0.94688742   1.04712096   1.18384999   1.26153496
   1.32670645   1.51840805   1.62992783   1.71318422   1.7187819
   1.82754359   2.00860196   2.05427113   2.10530406   2.13987128
   2.4218249    2.42719102   2.57605384   2.72030633   2.74817287
   2.76723991   2.80605069   2.90548683   2.92091638   3.00375148
   3.05813034   3.13689608   3.26318167   3.38049126   3.48274768
   3.68802008   4.0204665    4.30493805   5.07919659   5.42506802
   5.51962078   5.77373023   5.8177749    5.84981265   5.90739954
   6.08974999   6.21453179   6.30756665   6.45301761   6.4815227
   6.56728975   6.73346111   6.80847714   7.05295538   7.28711192
   7.41818767   7.52882753   7.6434119    7.84931808   7.9010843
   7.9788269    8.34497837   8.84017508   9.96009355  16.34623718
  16.34735949  16.37964813  16.39355097  16.40919666  16.42513651
  16.45170665  17.33363525  20.01562095  20.13897893  20.16091679
  20.2455018   20.41603757  27.40946068  27.49143718  28.10049884
  30.81624222  34.23767962  34.59209427  34.61274177  44.57011776
  44.58171219  44.59107397  44.83010109  44.90580672  78.16061424
 139.38074287 139.43940707 139.87504279 152.40659636]
  60 ( 0.750  0.750  0.000)   [-4.84571752e+01 -1.99839570e+01 -3.19588510e+00 -1.71845024e+00
 -1.71762835e+00 -1.71762784e+00 -7.34514278e-01 -2.60327323e-02
  5.05007811e-02  5.05008973e-02] [  0.80548516   0.90198364   1.09897119   1.1837494    1.18374946
   1.40291725   1.57174445   1.57174461   1.60974012   1.62543304
   1.89426795   1.95142579   1.9514261    2.12301447   2.3091206
   2.31931832   2.3193184    2.57663045   2.65426788   2.93707285
   2.93707347   3.03468596   3.04155056   3.0898346    3.15640358
   3.15640404   3.1881122    3.4722426    3.47224909   3.56931734
   3.62249806   3.84901005   3.84901295   5.05009831   5.7756182
   5.77561824   5.86406529   5.94957496   6.08975719   6.10193107
   6.10193208   6.2299419    6.29656617   6.37993106   6.37993125
   6.54203168   6.54203285   6.55503273   6.79735601   7.20714089
   7.55413614   7.76169235   7.76169258   7.83776008   8.06860927
   8.06860948   8.07926056   8.23473389  10.15424333  16.32618948
  16.38035014  16.39917857  16.39917889  16.42882075  16.42882092
  16.47270952  20.15883029  20.17110156  20.27206156  20.27206158
  20.32817965  20.90815671  27.61180472  27.61180481  27.91888355
  31.04631806  34.25415456  34.25415468  34.54780478  44.57878133
  44.62730852  44.62730855  44.69539019  44.85035438  78.17864317
 139.52479268 139.52479272 139.75399791 152.2949426 ]
  61 ( 0.750  0.750  0.250)   [-4.84571724e+01 -1.99839722e+01 -3.19572253e+00 -1.71956044e+00
 -1.71814083e+00 -1.71772727e+00 -7.06780997e-01 -8.37673976e-02
  6.41608601e-05  3.67114580e-02] [  0.85780934   0.95273522   1.0133612    1.19509985   1.24707722
   1.46161541   1.54724234   1.62202404   1.65660658   1.77929098
   1.83819813   2.00359674   2.09687207   2.18029662   2.2123008
   2.32382928   2.3747401    2.50445767   2.54093972   2.61845493
   2.65590498   2.78980234   2.913376     2.9879996    3.03414
   3.13726975   3.25125741   3.29730112   3.29803719   3.50596494
   3.60843431   3.87160722   4.4412154    4.69994397   5.52096951
   5.55040206   5.65626885   5.75109131   5.8374338    5.98745833
   6.12189143   6.20024688   6.29346085   6.32829408   6.53817926
   6.55091187   6.57657962   6.65168788   6.72300513   6.92398863
   7.5461998    7.67231225   7.7137301    7.8911508    7.90836536
   8.15936376   8.44462888   8.72317673   9.5970958   16.34061795
  16.35687546  16.36999661  16.39444641  16.41047752  16.41732497
  16.42985176  18.76023323  20.03823732  20.06837208  20.09838377
  20.21812051  20.28942691  27.5573622   27.57276644  27.96335502
  31.28648501  34.42583014  34.43908147  34.51489429  44.54758395
  44.58511864  44.58698599  44.87613346  44.90200545  78.16159729
 139.48847353 139.50009634 139.78049017 152.97117814]
  62 ( 0.750  0.750  0.500)   [-4.84571723e+01 -1.99839675e+01 -3.19578064e+00 -1.71928115e+00
 -1.71826317e+00 -1.71731598e+00 -7.14670019e-01 -6.73369856e-02
 -3.44501355e-03  5.37820181e-02] [  0.86165421   0.94688741   1.04712093   1.18384997   1.26153496
   1.32670644   1.51840804   1.62992779   1.71318423   1.71878196
   1.82754361   2.008602     2.05427111   2.10530406   2.13987126
   2.42182489   2.42719099   2.57605379   2.72030651   2.74817281
   2.76723988   2.80605307   2.90548684   2.92091678   3.00375143
   3.05813129   3.13689602   3.26318499   3.38049125   3.48274766
   3.68801994   4.02046892   4.30493806   5.07919598   5.42506852
   5.51962064   5.77373005   5.81777487   5.84981276   5.90739955
   6.08975152   6.21453179   6.30756656   6.4530176    6.4815239
   6.56728972   6.73346131   6.80847701   7.05295525   7.28711188
   7.41818755   7.52882597   7.6434119    7.8493181    7.90108431
   7.97882683   8.34497831   8.84017512   9.96009213  16.34623702
  16.34735935  16.3796481   16.39355092  16.4091966   16.42513634
  16.45170667  17.33363766  20.01562086  20.13897897  20.1609164
  20.24550177  20.41603738  27.40946068  27.49143718  28.100499
  30.81624223  34.23767964  34.59209406  34.6127417   44.57011776
  44.58171219  44.59107397  44.83010109  44.90580671  78.16061427
 139.38074287 139.43940707 139.87504281 152.40659636]
  63 ( 0.750  0.750  0.750)   [-4.84571731e+01 -1.99839530e+01 -3.19594282e+00 -1.71869560e+00
 -1.71721815e+00 -1.71721809e+00 -7.41360929e-01 -2.70527578e-02
  6.86634748e-02  6.86635722e-02] [  0.75942502   0.97702298   1.13264779   1.13264839   1.2805922
   1.28059234   1.36499502   1.57568414   1.64170378   1.64170496
   1.87392546   1.96002012   1.9600207    2.20574396   2.24575839
   2.24575946   2.61771944   2.61772139   2.62946689   2.78504361
   2.92058514   2.94017893   2.94018083   3.12177703   3.17747025
   3.17747177   3.30068763   3.34594674   3.34594714   3.65038339
   3.65038367   4.38822769   4.92333078   4.92334575   5.60355825
   5.85902068   5.85902626   5.88875428   5.88875471   5.92108061
   6.03280991   6.28810063   6.38282517   6.3926197    6.39262499
   6.6834832    6.68349358   6.86826442   7.02722613   7.02723561
   7.44955984   7.46227789   7.46228248   7.89601701   8.00140541
   8.00140585   8.65041512   8.89881594   8.89882222  16.32999635
  16.38566973  16.39211362  16.39211368  16.46215974  16.46216005
  16.54236075  17.45039172  20.15965118  20.1911656   20.19116576
  20.37856905  20.37856967  27.54240453  27.54240488  27.88731681
  30.65897258  34.33073797  34.37958885  34.37958971  44.58941434
  44.6247176   44.62471764  44.75412872  44.75412873  78.17642115
 139.46918968 139.46918971 139.72308214 152.06740768]
    CPU time for get_k_kpts: make_kpt ki>=kj (0,*)      1.95 sec, wall time      0.07 sec
    CPU time for get_k_kpts: make_kpt ki>=kj (1,*)      9.46 sec, wall time      0.30 sec
    CPU time for get_k_kpts: make_kpt ki>=kj (2,*)     12.92 sec, wall time      0.41 sec
    CPU time for get_k_kpts: make_kpt ki>=kj (3,*)     16.09 sec, wall time      0.51 sec
    CPU time for get_k_kpts: make_kpt ki>=kj (4,*)     22.28 sec, wall time      0.70 sec
    CPU time for get_k_kpts: make_kpt ki>=kj (5,*)     22.57 sec, wall time      0.71 sec
    CPU time for get_k_kpts: make_kpt ki>=kj (6,*)     30.24 sec, wall time      0.96 sec
    CPU time for get_k_kpts: make_kpt ki>=kj (7,*)     39.99 sec, wall time      1.30 sec
    CPU time for get_k_kpts: make_kpt ki>=kj (8,*)     36.15 sec, wall time      1.15 sec
    CPU time for get_k_kpts: make_kpt ki>=kj (9,*)     39.71 sec, wall time      1.25 sec
    CPU time for get_k_kpts: make_kpt ki>=kj (10,*)     53.54 sec, wall time      1.73 sec
    CPU time for get_k_kpts: make_kpt ki>=kj (11,*)     41.55 sec, wall time      1.31 sec
    CPU time for get_k_kpts: make_kpt ki>=kj (12,*)     51.16 sec, wall time      1.61 sec
    CPU time for get_k_kpts: make_kpt ki>=kj (13,*)     57.77 sec, wall time      1.82 sec
    CPU time for get_k_kpts: make_kpt ki>=kj (14,*)     53.23 sec, wall time      1.67 sec
    CPU time for get_k_kpts: make_kpt ki>=kj (15,*)     66.00 sec, wall time      2.09 sec
    CPU time for get_k_kpts: make_kpt ki>=kj (16,*)     64.87 sec, wall time      2.04 sec
    CPU time for get_k_kpts: make_kpt ki>=kj (17,*)     70.31 sec, wall time      2.22 sec
    CPU time for get_k_kpts: make_kpt ki>=kj (18,*)     81.27 sec, wall time      3.03 sec
    CPU time for get_k_kpts: make_kpt ki>=kj (19,*)     77.13 sec, wall time      2.43 sec
    CPU time for get_k_kpts: make_kpt ki>=kj (20,*)     82.31 sec, wall time      2.59 sec
    CPU time for get_k_kpts: make_kpt ki>=kj (21,*)     86.81 sec, wall time      2.73 sec
    CPU time for get_k_kpts: make_kpt ki>=kj (22,*)     95.84 sec, wall time      3.03 sec
    CPU time for get_k_kpts: make_kpt ki>=kj (23,*)     91.12 sec, wall time      2.89 sec
    CPU time for get_k_kpts: make_kpt ki>=kj (24,*)     89.08 sec, wall time      2.80 sec
    CPU time for get_k_kpts: make_kpt ki>=kj (25,*)     99.33 sec, wall time      3.13 sec
    CPU time for get_k_kpts: make_kpt ki>=kj (26,*)     97.88 sec, wall time      3.08 sec
    CPU time for get_k_kpts: make_kpt ki>=kj (27,*)    109.58 sec, wall time      3.46 sec
    CPU time for get_k_kpts: make_kpt ki>=kj (28,*)    108.08 sec, wall time      3.40 sec
    CPU time for get_k_kpts: make_kpt ki>=kj (29,*)    114.39 sec, wall time      3.63 sec
    CPU time for get_k_kpts: make_kpt ki>=kj (30,*)    117.45 sec, wall time      3.71 sec
    CPU time for get_k_kpts: make_kpt ki>=kj (31,*)    116.63 sec, wall time      3.70 sec
    CPU time for get_k_kpts: make_kpt ki>=kj (32,*)    112.14 sec, wall time      3.54 sec
    CPU time for get_k_kpts: make_kpt ki>=kj (33,*)    119.17 sec, wall time      3.75 sec
    CPU time for get_k_kpts: make_kpt ki>=kj (34,*)    119.92 sec, wall time      3.82 sec
    CPU time for get_k_kpts: make_kpt ki>=kj (35,*)    126.40 sec, wall time      3.98 sec
    CPU time for get_k_kpts: make_kpt ki>=kj (36,*)    135.96 sec, wall time      4.30 sec
    CPU time for get_k_kpts: make_kpt ki>=kj (37,*)    142.30 sec, wall time      4.48 sec
    CPU time for get_k_kpts: make_kpt ki>=kj (38,*)    141.05 sec, wall time      4.43 sec
    CPU time for get_k_kpts: make_kpt ki>=kj (39,*)    145.12 sec, wall time      4.56 sec
    CPU time for get_k_kpts: make_kpt ki>=kj (40,*)    149.22 sec, wall time      4.69 sec
    CPU time for get_k_kpts: make_kpt ki>=kj (41,*)    152.46 sec, wall time      4.86 sec
    CPU time for get_k_kpts: make_kpt ki>=kj (42,*)    170.37 sec, wall time      5.41 sec
    CPU time for get_k_kpts: make_kpt ki>=kj (43,*)    156.61 sec, wall time      4.94 sec
    CPU time for get_k_kpts: make_kpt ki>=kj (44,*)    155.81 sec, wall time      4.90 sec
    CPU time for get_k_kpts: make_kpt ki>=kj (45,*)    167.22 sec, wall time      5.27 sec
    CPU time for get_k_kpts: make_kpt ki>=kj (46,*)    165.55 sec, wall time      5.21 sec
    CPU time for get_k_kpts: make_kpt ki>=kj (47,*)    169.22 sec, wall time      5.33 sec
    CPU time for get_k_kpts: make_kpt ki>=kj (48,*)    159.73 sec, wall time      5.05 sec
    CPU time for get_k_kpts: make_kpt ki>=kj (49,*)    167.42 sec, wall time      5.26 sec
    CPU time for get_k_kpts: make_kpt ki>=kj (50,*)    170.00 sec, wall time      5.36 sec
    CPU time for get_k_kpts: make_kpt ki>=kj (51,*)    171.65 sec, wall time      5.40 sec
    CPU time for get_k_kpts: make_kpt ki>=kj (52,*)    175.54 sec, wall time      5.52 sec
    CPU time for get_k_kpts: make_kpt ki>=kj (53,*)    177.82 sec, wall time      5.59 sec
    CPU time for get_k_kpts: make_kpt ki>=kj (54,*)    181.25 sec, wall time      5.71 sec
    CPU time for get_k_kpts: make_kpt ki>=kj (55,*)    196.58 sec, wall time      6.19 sec
    CPU time for get_k_kpts: make_kpt ki>=kj (56,*)    197.71 sec, wall time      6.24 sec
    CPU time for get_k_kpts: make_kpt ki>=kj (57,*)    202.50 sec, wall time      6.37 sec
    CPU time for get_k_kpts: make_kpt ki>=kj (58,*)    204.24 sec, wall time      6.42 sec
    CPU time for get_k_kpts: make_kpt ki>=kj (59,*)    210.50 sec, wall time      6.62 sec
    CPU time for get_k_kpts: make_kpt ki>=kj (60,*)    213.83 sec, wall time      6.72 sec
    CPU time for get_k_kpts: make_kpt ki>=kj (61,*)    221.09 sec, wall time      6.95 sec
    CPU time for get_k_kpts: make_kpt ki>=kj (62,*)    221.63 sec, wall time      7.02 sec
    CPU time for get_k_kpts: make_kpt ki>=kj (63,*)    222.26 sec, wall time      7.04 sec
Monkhorst pack size [4 4 4] ew_eta 1.3357296425370517 ew_cut 5.2643847102778265
Ewald components = 0, -0.753713792271532, 0.681728131632692
    CPU time for get_j pass 1     90.36 sec, wall time      3.20 sec
    CPU time for get_j pass 2      8.28 sec, wall time      2.25 sec
    CPU time for vj and vk   7587.03 sec, wall time    242.16 sec
Ewald components = 9.1775830151223e-178, -596.417259326552, 523.385019500803
E1 = (-248.303775955343-2.7832940667176877e-14j)  E_coul = (46.63705512760889+2.510616834863523e-13j)
Extra cycle  E= -274.698960653482  delta_E= -3.17e-11  |g|= 3.65e-05  |ddm|= 0.0209
    CPU time for scf_cycle 411616.24 sec, wall time  14384.28 sec
    CPU time for SCF 411616.37 sec, wall time  14384.31 sec
converged SCF energy = -274.698960653482
