Discarded 1 diffused primitive functions, 0 contracted functions
#INFO: **** input file is /burg/ccce/users/eav2136/projects/core_level_spectroscopy/01_peommp2_cbe/meanfield.py ****
#!/usr/bin/env python
import json
from pyscf.pbc import gto, scf
from pyscf.pbc.tools import lattice, pyscf_ase
from pyscf.pbc.scf import chkfile
from fileutils import load, dump
import sys

material = load("data/{}".format(sys.argv[1]))
# Create Cell
cell = gto.Cell()
ase_atom = lattice.get_ase_atom(material["formula"])
cell.atom = pyscf_ase.ase_atoms_to_pyscf(ase_atom)
cell.a = ase_atom.cell[:]
cell.unit = "B"
cell.basis = material["basis"]
cell.exp_to_discard = material["exp_to_discard"]
cell.verbose = 7
cell.build()

# Mean Field
kdensity = material["kdensity"]
kmesh = [kdensity, kdensity, kdensity]
kpts = cell.make_kpts(kmesh, scaled_center=material["vb_scaled_center"])
mymf = scf.KRHF(cell, kpts=kpts, exxdiv="ewald")
mymf.chkfile = "data/{}".format(material["chk"])
mymf = mymf.density_fit()
mymf.with_df._cderi_to_save = "data/{}".format(material["cderi"])
ekrhf = mymf.kernel()
convergence = mymf.converged
mymf_data = dict([("ekrhf", float(ekrhf)),
                  ("convergence", bool(convergence))])
dump(mymf_data, "data/{}".format(material["ekrhf"]))
#INFO: ******************** input file end ********************


System: uname_result(system='Linux', node='g102', release='4.18.0-193.el8.x86_64', version='#1 SMP Fri Mar 27 14:35:58 UTC 2020', machine='x86_64')  Threads 32
Python 3.10.12 (main, Jul 29 2023, 11:27:27) [GCC 13.2.0]
numpy 1.25.1  scipy 1.10.1
Date: Thu Jan 25 15:48:50 2024
PySCF version 2.0.1
PySCF path  /burg/berkelbach/users/eav2136/builds/pyscf/projected-cvs/pyscf
GIT ORIG_HEAD 0bfbc692adf3ea63b8a509210433219cd1c472a2
GIT HEAD (branch projected-cvs) e14caaa2dddc538b9be2d86f01e5b456fc92da36

[ENV] PYSCF_TMPDIR /burg/ccce/users/eav2136/projects/core_level_spectroscopy/01_peommp2_cbe/tmp
[ENV] PYSCF_MAX_MEMORY 700000
[CONFIG] DEBUG = False
[CONFIG] MAX_MEMORY = 700000
[CONFIG] TMPDIR = /burg/ccce/users/eav2136/projects/core_level_spectroscopy/01_peommp2_cbe/tmp
[CONFIG] UNIT = angstrom
[CONFIG] VERBOSE = 3
[CONFIG] conf_file = None
[INPUT] verbose = 7
[INPUT] max_memory = 700000 
[INPUT] num. atoms = 2
[INPUT] num. electrons = 20
[INPUT] charge = 0
[INPUT] spin (= nelec alpha-beta = 2S) = 0
[INPUT] symmetry False subgroup None
[INPUT] Mole.unit = B
[INPUT]  1 Mg     0.000000000000   0.000000000000   0.000000000000 AA    0.000000000000   0.000000000000   0.000000000000 Bohr
[INPUT]  2 O      2.106499848884   0.000000000000   0.000000000000 AA    3.980707795829   0.000000000000   0.000000000000 Bohr
[INPUT] ---------------- BASIS SET ---------------- 
[INPUT] l, kappa, [nprim/nctr], expnt,             c_1 c_2 ...
[INPUT] O
[INPUT] 0    0    [8    /2   ]  15330             0.000508 -0.000115
                                2299              0.003929 -0.000895
                                522.4             0.020243 -0.004636
                                147.3             0.079181 -0.018724
                                47.55             0.230687 -0.058463
                                16.76             0.433118 -0.136463
                                6.207             0.35026 -0.17574
                                0.6882            -0.008154 0.603418
[INPUT] 0    0    [1    /1   ]  1.752                1
[INPUT] 0    0    [1    /1   ]  0.2384               1
[INPUT] 1    0    [3    /1   ]  34.46             0.015928
                                7.749             0.09974
                                2.28              0.310492
[INPUT] 1    0    [1    /1   ]  0.7156               1
[INPUT] 1    0    [1    /1   ]  0.214                1
[INPUT] 2    0    [1    /1   ]  2.314                1
[INPUT] 2    0    [1    /1   ]  0.645                1
[INPUT] 3    0    [1    /1   ]  1.428                1
[INPUT] 0    0    [1    /1   ]  7.845                1
[INPUT] 0    0    [1    /1   ]  21.032               1
[INPUT] 1    0    [1    /1   ]  15.159               1
[INPUT] 1    0    [1    /1   ]  57.437               1
[INPUT] 2    0    [1    /1   ]  15.858               1
[INPUT] Mg
[INPUT] 0    0    [13   /3   ]  164900            7.29929e-05 -1.84248e-05 3.55176e-06
                                24710             0.000566652 -0.0001435 2.7642e-05
                                5628              0.00296269 -0.00074871 0.000144404
                                1596              0.0122962 -0.00314407 0.000605744
                                521               0.0427324 -0.0110481 0.00213527
                                188               0.123013 -0.0336058 0.00649934
                                73.01             0.274832 -0.0825946 0.0161446
                                29.9              0.401818 -0.159314 0.0315766
                                12.54             0.264697 -0.152888 0.0316374
                                4.306             0.0332612 0.190849 -0.043914
                                1.826             -0.00441335 0.579964 -0.151093
                                0.7417            0.00206024 0.372029 -0.217668
                                0.07612           0.000708195 -0.0119344 0.547245
[INPUT] 0    0    [1    /1   ]  0.1457               1
[INPUT] 0    0    [1    /1   ]  0.0331               1
[INPUT] 1    0    [8    /2   ]  316.9             0.00207532 -0.000329727
                                74.86             0.0162869 -0.00258754
                                23.72             0.0738697 -0.011912
                                8.669             0.214297 -0.0350227
                                3.363             0.382154 -0.0639968
                                1.31              0.398178 -0.0704436
                                0.4911            0.152878 -0.0375836
                                0.2364            -0.0043754 0.177043
[INPUT] 1    0    [1    /1   ]  0.08733              1
[INPUT] 2    0    [1    /1   ]  0.126                1
[INPUT] 2    0    [1    /1   ]  0.294                1
[INPUT] 3    0    [1    /1   ]  0.252                1
[INPUT] 0    0    [1    /1   ]  17.516               1
[INPUT] 0    0    [1    /1   ]  3.87                 1
[INPUT] 1    0    [1    /1   ]  20.297               1
[INPUT] 1    0    [1    /1   ]  5.105                1
[INPUT] 2    0    [1    /1   ]  7.029                1
[INPUT] 2    0    [1    /1   ]  2.121                1
[INPUT] 3    0    [1    /1   ]  4.53                 1

Ewald components = 9.1775830151223e-178, -596.417259326552, 523.385019500803
nuclear repulsion = -73.0322398257483
number of shells = 29
number of NR pGTOs = 139
number of NR cGTOs = 99
basis = ccpcvtz
ecp = {}
bas 0, expnt(s) = [1.649e+05 2.471e+04 5.628e+03 1.596e+03 5.210e+02 1.880e+02 7.301e+01
 2.990e+01 1.254e+01 4.306e+00 1.826e+00 7.417e-01 7.612e-02]
bas 1, expnt(s) = [0.1457]
bas 2, expnt(s) = [0.0331]
bas 3, expnt(s) = [3.169e+02 7.486e+01 2.372e+01 8.669e+00 3.363e+00 1.310e+00 4.911e-01
 2.364e-01]
bas 4, expnt(s) = [0.08733]
bas 5, expnt(s) = [0.126]
bas 6, expnt(s) = [0.294]
bas 7, expnt(s) = [0.252]
bas 8, expnt(s) = [17.516]
bas 9, expnt(s) = [3.87]
bas 10, expnt(s) = [20.297]
bas 11, expnt(s) = [5.105]
bas 12, expnt(s) = [7.029]
bas 13, expnt(s) = [2.121]
bas 14, expnt(s) = [4.53]
bas 15, expnt(s) = [1.533e+04 2.299e+03 5.224e+02 1.473e+02 4.755e+01 1.676e+01 6.207e+00
 6.882e-01]
bas 16, expnt(s) = [1.752]
bas 17, expnt(s) = [0.2384]
bas 18, expnt(s) = [34.46   7.749  2.28 ]
bas 19, expnt(s) = [0.7156]
bas 20, expnt(s) = [0.214]
bas 21, expnt(s) = [2.314]
bas 22, expnt(s) = [0.645]
bas 23, expnt(s) = [1.428]
bas 24, expnt(s) = [7.845]
bas 25, expnt(s) = [21.032]
bas 26, expnt(s) = [15.159]
bas 27, expnt(s) = [57.437]
bas 28, expnt(s) = [15.858]
CPU time:         1.09
lattice vectors  a1 [0.000000000, 3.980707796, 3.980707796]
                 a2 [3.980707796, 0.000000000, 3.980707796]
                 a3 [3.980707796, 3.980707796, 0.000000000]
dimension = 3
low_dim_ft_type = None
Cell volume = 126.157
exp_to_discard = 0.033
rcut = 38.526599018932664 (nimgs = [9 9 9])
lattice sum = 3584 cells
precision = 1e-08
pseudo = None
ke_cutoff = 357949.93847749155
    = [1238 1238 1238] mesh (1897413272 PWs)


******** <class 'pyscf.pbc.scf.khf.KRHF'> ********
method = KRHF-KSCF-RHF-SCF-RHF
initial guess = minao
damping factor = 0
level_shift factor = 0
DIIS = <class 'pyscf.scf.diis.CDIIS'>
diis_start_cycle = 1
diis_space = 8
SCF conv_tol = 1e-07
SCF conv_tol_grad = None
SCF max_cycles = 50
direct_scf = True
direct_scf_tol = 1e-13
chkfile to save SCF result = data/mgo_ccpcvtz_k3_Mg_2p_nvir_act63.chk
max_memory 700000 MB (current use 100 MB)


******** PBC SCF flags ********
N kpts = 27
kpts = [[ 0.00000000e+00  0.00000000e+00  0.00000000e+00]
 [ 2.63068179e-01  2.63068179e-01 -2.63068179e-01]
 [ 5.26136358e-01  5.26136358e-01 -5.26136358e-01]
 [ 2.63068179e-01 -2.63068179e-01  2.63068179e-01]
 [ 5.26136358e-01  3.90049961e-18 -3.90049961e-18]
 [ 7.89204537e-01  2.63068179e-01 -2.63068179e-01]
 [ 5.26136358e-01 -5.26136358e-01  5.26136358e-01]
 [ 7.89204537e-01 -2.63068179e-01  2.63068179e-01]
 [ 1.05227272e+00  7.80099921e-18 -7.80099921e-18]
 [-2.63068179e-01  2.63068179e-01  2.63068179e-01]
 [ 3.90049961e-18  5.26136358e-01 -3.90049961e-18]
 [ 2.63068179e-01  7.89204537e-01 -2.63068179e-01]
 [ 3.90049961e-18 -3.90049961e-18  5.26136358e-01]
 [ 2.63068179e-01  2.63068179e-01  2.63068179e-01]
 [ 5.26136358e-01  5.26136358e-01 -7.80099921e-18]
 [ 2.63068179e-01 -2.63068179e-01  7.89204537e-01]
 [ 5.26136358e-01  3.90049961e-18  5.26136358e-01]
 [ 7.89204537e-01  2.63068179e-01  2.63068179e-01]
 [-5.26136358e-01  5.26136358e-01  5.26136358e-01]
 [-2.63068179e-01  7.89204537e-01  2.63068179e-01]
 [ 7.80099921e-18  1.05227272e+00 -7.80099921e-18]
 [-2.63068179e-01  2.63068179e-01  7.89204537e-01]
 [ 3.90049961e-18  5.26136358e-01  5.26136358e-01]
 [ 2.63068179e-01  7.89204537e-01  2.63068179e-01]
 [ 7.80099921e-18 -7.80099921e-18  1.05227272e+00]
 [ 2.63068179e-01  2.63068179e-01  7.89204537e-01]
 [ 5.26136358e-01  5.26136358e-01  5.26136358e-01]]
Exchange divergence treatment (exxdiv) = ewald
Monkhorst pack size [3 3 3] ew_eta 1.7617206716074303 ew_cut 3.993056330944369
Ewald components = 0, -0.994093035724495, 0.898112154971916
    madelung (= occupied orbital energy shift) = 0.1919617615051581
    Total energy shift due to Ewald probe charge = -1/2 * Nelec*madelung = -1.91961761505
DF object = <pyscf.pbc.df.df.GDF object at 0x155553f43fd0>
Set gradient conv threshold to 0.000316228
Big error detected in the electron number of initial guess density matrix (Ne/cell = 20.0182)!
  This can cause huge error in Fock matrix and lead to instability in SCF for low-dimensional systems.
  DM is normalized wrt the number of electrons 20.0
    CPU time for vnuc pass1: analytic int   5016.99 sec, wall time    162.33 sec
    CPU time for contracting Vnuc [0:343]     80.91 sec, wall time      2.58 sec
    CPU time for contracting Vnuc     80.91 sec, wall time      2.58 sec
    CPU time for get_nuc   5098.07 sec, wall time    164.91 sec


******** <class 'pyscf.pbc.df.df.GDF'> ********
mesh = [7, 7, 7] (343 PWs)
auxbasis = None
eta = 0.2
exp_to_discard = 0.033
_cderi_to_save = data/mgo_ccpcvtz_k3_Mg_2p_nvir_act63_cderi.h5
len(kpts) = 27
    kpts = [[ 0.00000000e+00  0.00000000e+00  0.00000000e+00]
 [ 2.63068179e-01  2.63068179e-01 -2.63068179e-01]
 [ 5.26136358e-01  5.26136358e-01 -5.26136358e-01]
 [ 2.63068179e-01 -2.63068179e-01  2.63068179e-01]
 [ 5.26136358e-01  3.90049961e-18 -3.90049961e-18]
 [ 7.89204537e-01  2.63068179e-01 -2.63068179e-01]
 [ 5.26136358e-01 -5.26136358e-01  5.26136358e-01]
 [ 7.89204537e-01 -2.63068179e-01  2.63068179e-01]
 [ 1.05227272e+00  7.80099921e-18 -7.80099921e-18]
 [-2.63068179e-01  2.63068179e-01  2.63068179e-01]
 [ 3.90049961e-18  5.26136358e-01 -3.90049961e-18]
 [ 2.63068179e-01  7.89204537e-01 -2.63068179e-01]
 [ 3.90049961e-18 -3.90049961e-18  5.26136358e-01]
 [ 2.63068179e-01  2.63068179e-01  2.63068179e-01]
 [ 5.26136358e-01  5.26136358e-01 -7.80099921e-18]
 [ 2.63068179e-01 -2.63068179e-01  7.89204537e-01]
 [ 5.26136358e-01  3.90049961e-18  5.26136358e-01]
 [ 7.89204537e-01  2.63068179e-01  2.63068179e-01]
 [-5.26136358e-01  5.26136358e-01  5.26136358e-01]
 [-2.63068179e-01  7.89204537e-01  2.63068179e-01]
 [ 7.80099921e-18  1.05227272e+00 -7.80099921e-18]
 [-2.63068179e-01  2.63068179e-01  7.89204537e-01]
 [ 3.90049961e-18  5.26136358e-01  5.26136358e-01]
 [ 2.63068179e-01  7.89204537e-01  2.63068179e-01]
 [ 7.80099921e-18 -7.80099921e-18  1.05227272e+00]
 [ 2.63068179e-01  2.63068179e-01  7.89204537e-01]
 [ 5.26136358e-01  5.26136358e-01  5.26136358e-01]]
Even tempered Gaussians are generated as DF auxbasis for  O Mg
  ETB auxbasis for O  [[0, [3905.9456, 1]], [0, [1952.9728, 1]], [0, [976.4864, 1]], [0, [488.2432, 1]], [0, [244.1216, 1]], [0, [122.0608, 1]], [0, [61.0304, 1]], [0, [30.5152, 1]], [0, [15.2576, 1]], [0, [7.6288, 1]], [0, [3.8144, 1]], [0, [1.9072, 1]], [0, [0.9536, 1]], [0, [0.4768, 1]], [1, [462.5833154691163, 1]], [1, [231.29165773455816, 1]], [1, [115.64582886727908, 1]], [1, [57.82291443363954, 1]], [1, [28.91145721681977, 1]], [1, [14.455728608409885, 1]], [1, [7.227864304204942, 1]], [1, [3.613932152102471, 1]], [1, [1.8069660760512356, 1]], [1, [0.9034830380256178, 1]], [1, [0.4517415190128089, 1]], [2, [219.136, 1]], [2, [109.568, 1]], [2, [54.784, 1]], [2, [27.392, 1]], [2, [13.696, 1]], [2, [6.848, 1]], [2, [3.424, 1]], [2, [1.712, 1]], [2, [0.856, 1]], [2, [0.428, 1]], [3, [47.555057775172564, 1]], [3, [23.777528887586282, 1]], [3, [11.888764443793141, 1]], [3, [5.9443822218965705, 1]], [3, [2.9721911109482853, 1]], [3, [1.4860955554741426, 1]], [3, [0.7430477777370713, 1]], [4, [20.64, 1]], [4, [10.32, 1]], [4, [5.16, 1]], [4, [2.58, 1]], [4, [1.29, 1]]]
  ETB auxbasis for Mg  [[0, [8676.9664, 1]], [0, [4338.4832, 1]], [0, [2169.2416, 1]], [0, [1084.6208, 1]], [0, [542.3104, 1]], [0, [271.1552, 1]], [0, [135.5776, 1]], [0, [67.7888, 1]], [0, [33.8944, 1]], [0, [16.9472, 1]], [0, [8.4736, 1]], [0, [4.2368, 1]], [0, [2.1184, 1]], [0, [1.0592, 1]], [0, [0.5296, 1]], [0, [0.2648, 1]], [0, [0.1324, 1]], [0, [0.0662, 1]], [1, [1761.7556052178043, 1]], [1, [880.8778026089021, 1]], [1, [440.43890130445106, 1]], [1, [220.21945065222553, 1]], [1, [110.10972532611277, 1]], [1, [55.05486266305638, 1]], [1, [27.52743133152819, 1]], [1, [13.763715665764096, 1]], [1, [6.881857832882048, 1]], [1, [3.440928916441024, 1]], [1, [1.720464458220512, 1]], [1, [0.860232229110256, 1]], [1, [0.430116114555128, 1]], [1, [0.215058057277564, 1]], [1, [0.107529028638782, 1]], [2, [529.0408568328158, 1]], [2, [264.5204284164079, 1]], [2, [132.26021420820396, 1]], [2, [66.13010710410198, 1]], [2, [33.06505355205099, 1]], [2, [16.532526776025495, 1]], [2, [8.266263388012748, 1]], [2, [4.133131694006374, 1]], [2, [2.066565847003187, 1]], [2, [1.0332829235015935, 1]], [2, [0.5166414617507967, 1]], [2, [0.25832073087539836, 1]], [2, [0.12916036543769918, 1]], [3, [53.70775060938598, 1]], [3, [26.85387530469299, 1]], [3, [13.426937652346496, 1]], [3, [6.713468826173248, 1]], [3, [3.356734413086624, 1]], [3, [1.678367206543312, 1]], [3, [0.839183603271656, 1]], [3, [0.419591801635828, 1]], [3, [0.209795900817914, 1]], [4, [8.064, 1]], [4, [4.032, 1]], [4, [2.016, 1]], [4, [1.008, 1]], [4, [0.504, 1]], [4, [0.252, 1]]]
num shells = 108, num cGTOs = 436
Drop 0 primitive fitting functions
make aux basis, num shells = 108, num cGTOs = 436
auxcell.rcut 21.33945144632412
make compensating basis, num shells = 10, num cGTOs = 50
chgcell.rcut 11.482117703874595
    CPU time for 3c2e 250489.81 sec, wall time   8431.02 sec
Num uniq kpts 63
uniq_kpts [[ 0.00000000e+00  0.00000000e+00  0.00000000e+00]
 [-2.63068179e-01 -2.63068179e-01  2.63068179e-01]
 [-5.26136358e-01 -5.26136358e-01  5.26136358e-01]
 [-2.63068179e-01  2.63068179e-01 -2.63068179e-01]
 [ 0.00000000e+00  5.26136358e-01 -5.26136358e-01]
 [ 2.63068179e-01  7.89204537e-01 -7.89204537e-01]
 [-5.26136358e-01 -3.90049961e-18  3.90049961e-18]
 [-7.89204537e-01 -2.63068179e-01  2.63068179e-01]
 [-5.26136358e-01  5.26136358e-01 -5.26136358e-01]
 [-2.63068179e-01  7.89204537e-01 -7.89204537e-01]
 [ 0.00000000e+00  1.05227272e+00 -1.05227272e+00]
 [-7.89204537e-01  2.63068179e-01 -2.63068179e-01]
 [-1.05227272e+00 -7.80099921e-18  7.80099921e-18]
 [ 2.63068179e-01 -2.63068179e-01 -2.63068179e-01]
 [ 5.26136358e-01  0.00000000e+00 -5.26136358e-01]
 [ 7.89204537e-01  2.63068179e-01 -7.89204537e-01]
 [ 5.26136358e-01 -5.26136358e-01  0.00000000e+00]
 [ 7.89204537e-01 -2.63068179e-01 -2.63068179e-01]
 [ 1.05227272e+00  0.00000000e+00 -5.26136358e-01]
 [ 7.89204537e-01 -7.89204537e-01  2.63068179e-01]
 [ 1.05227272e+00 -5.26136358e-01  0.00000000e+00]
 [ 1.31534090e+00 -2.63068179e-01 -2.63068179e-01]
 [-3.90049961e-18 -5.26136358e-01  3.90049961e-18]
 [ 2.63068179e-01 -7.89204537e-01  2.63068179e-01]
 [ 5.26136358e-01 -1.05227272e+00  5.26136358e-01]
 [-2.63068179e-01 -7.89204537e-01  2.63068179e-01]
 [ 0.00000000e+00 -1.05227272e+00  5.26136358e-01]
 [ 2.63068179e-01 -1.31534090e+00  7.89204537e-01]
 [-3.90049961e-18  3.90049961e-18 -5.26136358e-01]
 [ 2.63068179e-01  2.63068179e-01 -7.89204537e-01]
 [ 5.26136358e-01  5.26136358e-01 -1.05227272e+00]
 [-2.63068179e-01 -2.63068179e-01 -2.63068179e-01]
 [-5.26136358e-01 -5.26136358e-01  7.80099921e-18]
 [-2.63068179e-01  2.63068179e-01 -7.89204537e-01]
 [ 0.00000000e+00  5.26136358e-01 -1.05227272e+00]
 [ 2.63068179e-01  7.89204537e-01 -1.31534090e+00]
 [-5.26136358e-01 -3.90049961e-18 -5.26136358e-01]
 [-7.89204537e-01 -2.63068179e-01 -2.63068179e-01]
 [ 5.26136358e-01 -5.26136358e-01 -5.26136358e-01]
 [ 7.89204537e-01 -2.63068179e-01 -7.89204537e-01]
 [ 1.05227272e+00  0.00000000e+00 -1.05227272e+00]
 [ 7.89204537e-01 -7.89204537e-01 -2.63068179e-01]
 [ 1.05227272e+00 -5.26136358e-01 -5.26136358e-01]
 [ 1.31534090e+00 -2.63068179e-01 -7.89204537e-01]
 [ 1.05227272e+00 -1.05227272e+00  0.00000000e+00]
 [ 1.31534090e+00 -7.89204537e-01 -2.63068179e-01]
 [ 1.57840907e+00 -5.26136358e-01 -5.26136358e-01]
 [ 2.63068179e-01 -7.89204537e-01 -2.63068179e-01]
 [ 5.26136358e-01 -1.05227272e+00  0.00000000e+00]
 [ 7.89204537e-01 -1.31534090e+00  2.63068179e-01]
 [-7.80099921e-18 -1.05227272e+00  7.80099921e-18]
 [ 2.63068179e-01 -1.31534090e+00  2.63068179e-01]
 [ 5.26136358e-01 -1.57840907e+00  5.26136358e-01]
 [ 2.63068179e-01 -2.63068179e-01 -7.89204537e-01]
 [ 5.26136358e-01  0.00000000e+00 -1.05227272e+00]
 [ 7.89204537e-01  2.63068179e-01 -1.31534090e+00]
 [-3.90049961e-18 -5.26136358e-01 -5.26136358e-01]
 [-2.63068179e-01 -7.89204537e-01 -2.63068179e-01]
 [-7.80099921e-18  7.80099921e-18 -1.05227272e+00]
 [ 2.63068179e-01  2.63068179e-01 -1.31534090e+00]
 [ 5.26136358e-01  5.26136358e-01 -1.57840907e+00]
 [-2.63068179e-01 -2.63068179e-01 -7.89204537e-01]
 [-5.26136358e-01 -5.26136358e-01 -5.26136358e-01]]
max_memory 699472.603136 (MB)  blocksize 35981100
Cholesky decomposition for j2c at kpt 0
Symmetry pattern (k - [0. 0. 0.])*a= 2n pi
    make_kpt for uniq_kptji_ids [0]
kpt = [0. 0. 0.]
adapted_ji_idx = [  0   2   5   9  14  20  27  35  44  54  65  77  90 104 119 135 152 170
 189 209 230 252 275 299 324 350 377]
memory = 401.8176
int3c2e [1/1], AO [0:29], ncol = 4950
Symmetry pattern (k + [0. 0. 0.])*a= 2n pi
    make_kpt for [0]
Cholesky decomposition for j2c at kpt 1
Symmetry pattern (k - [-0.26306818 -0.26306818  0.26306818])*a= 2n pi
    make_kpt for uniq_kptji_ids [1]
kpt = [-0.26306818 -0.26306818  0.26306818]
adapted_ji_idx = [  1   4  13  19  34  43  64  76 103 118 151 169 208 229 274 298 349 376]
memory = 1954.824192
int3c2e [1/1], AO [0:29], ncol = 9801
Symmetry pattern (k + [-0.26306818 -0.26306818  0.26306818])*a= 2n pi
    make_kpt for [2]
kpt = [-0.52613636 -0.52613636  0.52613636]
adapted_ji_idx = [  3  18  42  75 117 168 228 297 375]
memory = 2011.758592
int3c2e [1/1], AO [0:29], ncol = 9801
Cholesky decomposition for j2c at kpt 3
Symmetry pattern (k - [-0.26306818  0.26306818 -0.26306818])*a= 2n pi
    make_kpt for uniq_kptji_ids [3]
kpt = [-0.26306818  0.26306818 -0.26306818]
adapted_ji_idx = [  6  11  17  24  32  41  87 101 116 132 149 167 249 272 296 321 347 374]
memory = 2064.56832
int3c2e [1/1], AO [0:29], ncol = 9801
Symmetry pattern (k + [-0.26306818  0.26306818 -0.26306818])*a= 2n pi
    make_kpt for [8]
kpt = [-0.52613636  0.52613636 -0.52613636]
adapted_ji_idx = [ 21  29  38 129 146 164 318 344 371]
memory = 2016.321536
int3c2e [1/1], AO [0:29], ncol = 9801
Cholesky decomposition for j2c at kpt 4
DF metric linear dependency for kpt 4
cond = 4.442e+17, drop 23 bfns
Symmetry pattern (k - [ 0.          0.52613636 -0.52613636])*a= 2n pi
    make_kpt for uniq_kptji_ids [4 7]
kpt = [ 0.          0.52613636 -0.52613636]
adapted_ji_idx = [  7  12  25  33  88 102 133 150 250 273 322 348]
memory = 2019.897344
int3c2e [1/1], AO [0:29], ncol = 9801
kpt = [-0.78920454 -0.26306818  0.26306818]
adapted_ji_idx = [ 15  39 114 165 294 372]
memory = 2024.370176
int3c2e [1/1], AO [0:29], ncol = 9801
Symmetry pattern (k + [ 0.          0.52613636 -0.52613636])*a= 2n pi
    make_kpt for [10 11]
kpt = [ 0.          1.05227272 -1.05227272]
adapted_ji_idx = [ 23 131 320]
memory = 2029.95712
int3c2e [1/1], AO [0:29], ncol = 9801
kpt = [-0.78920454  0.26306818 -0.26306818]
adapted_ji_idx = [ 28  37 145 163 343 370]
memory = 2033.8688
int3c2e [1/1], AO [0:29], ncol = 9801
Cholesky decomposition for j2c at kpt 5
Symmetry pattern (k - [ 0.26306818  0.78920454 -0.78920454])*a= 2n pi
    make_kpt for uniq_kptji_ids [5 6]
kpt = [ 0.26306818  0.78920454 -0.78920454]
adapted_ji_idx = [  8  26  89 134 251 323]
memory = 2034.376704
int3c2e [1/1], AO [0:29], ncol = 9801
kpt = [-5.26136358e-01 -3.90049961e-18  3.90049961e-18]
adapted_ji_idx = [ 10  16  31  40 100 115 148 166 271 295 346 373]
memory = 2034.556928
int3c2e [1/1], AO [0:29], ncol = 9801
Symmetry pattern (k + [ 0.26306818  0.78920454 -0.78920454])*a= 2n pi
    make_kpt for [ 9 12]
kpt = [-0.26306818  0.78920454 -0.78920454]
adapted_ji_idx = [ 22  30 130 147 319 345]
memory = 2033.93024
int3c2e [1/1], AO [0:29], ncol = 9801
kpt = [-1.05227272e+00 -7.80099921e-18  7.80099921e-18]
adapted_ji_idx = [ 36 162 369]
memory = 2034.270208
int3c2e [1/1], AO [0:29], ncol = 9801
Cholesky decomposition for j2c at kpt 13
Symmetry pattern (k - [ 0.26306818 -0.26306818 -0.26306818])*a= 2n pi
    make_kpt for uniq_kptji_ids [13]
kpt = [ 0.26306818 -0.26306818 -0.26306818]
adapted_ji_idx = [ 45  56  68  81  95 110 126 143 161 180 200 221 243 266 290 315 341 368]
memory = 2033.586176
int3c2e [1/1], AO [0:29], ncol = 9801
Symmetry pattern (k + [ 0.26306818 -0.26306818 -0.26306818])*a= 2n pi
    make_kpt for [38]
kpt = [ 0.52613636 -0.52613636 -0.52613636]
adapted_ji_idx = [171 191 212 234 257 281 306 332 359]
memory = 2035.253248
int3c2e [1/1], AO [0:29], ncol = 9801
Cholesky decomposition for j2c at kpt 14
DF metric linear dependency for kpt 14
cond = 1.701e+17, drop 23 bfns
Symmetry pattern (k - [ 0.52613636  0.         -0.52613636])*a= 2n pi
    make_kpt for uniq_kptji_ids [14 25]
kpt = [ 0.52613636  0.         -0.52613636]
adapted_ji_idx = [ 46  57  82  96 127 144 181 201 244 267 316 342]
memory = 2036.240384
int3c2e [1/1], AO [0:29], ncol = 9801
kpt = [-0.26306818 -0.78920454  0.26306818]
adapted_ji_idx = [ 66 108 159 219 288 366]
memory = 2035.265536
int3c2e [1/1], AO [0:29], ncol = 9801
Symmetry pattern (k + [ 0.52613636  0.         -0.52613636])*a= 2n pi
    make_kpt for [40 47]
kpt = [ 1.05227272  0.         -1.05227272]
adapted_ji_idx = [173 236 308]
memory = 2036.027392
int3c2e [1/1], AO [0:29], ncol = 9801
kpt = [ 0.26306818 -0.78920454 -0.26306818]
adapted_ji_idx = [190 211 256 280 331 358]
memory = 2035.531776
int3c2e [1/1], AO [0:29], ncol = 9801
Cholesky decomposition for j2c at kpt 15
Symmetry pattern (k - [ 0.78920454  0.26306818 -0.78920454])*a= 2n pi
    make_kpt for uniq_kptji_ids [15 22]
kpt = [ 0.78920454  0.26306818 -0.78920454]
adapted_ji_idx = [ 47  83 128 182 245 317]
memory = 2035.34336
int3c2e [1/1], AO [0:29], ncol = 9801
kpt = [-3.90049961e-18 -5.26136358e-01  3.90049961e-18]
adapted_ji_idx = [ 55  67  94 109 142 160 199 220 265 289 340 367]
memory = 2035.879936
int3c2e [1/1], AO [0:29], ncol = 9801
Symmetry pattern (k + [ 0.78920454  0.26306818 -0.78920454])*a= 2n pi
    make_kpt for [39 50]
kpt = [ 0.78920454 -0.26306818 -0.78920454]
adapted_ji_idx = [172 192 235 258 307 333]
memory = 2035.900416
int3c2e [1/1], AO [0:29], ncol = 9801
kpt = [-7.80099921e-18 -1.05227272e+00  7.80099921e-18]
adapted_ji_idx = [210 279 357]
memory = 2034.823168
int3c2e [1/1], AO [0:29], ncol = 9801
Cholesky decomposition for j2c at kpt 16
DF metric linear dependency for kpt 16
cond = 3.615e+17, drop 23 bfns
Symmetry pattern (k - [ 0.52613636 -0.52613636  0.        ])*a= 2n pi
    make_kpt for uniq_kptji_ids [16 33]
kpt = [ 0.52613636 -0.52613636  0.        ]
adapted_ji_idx = [ 48  59  71  84  98 113 183 203 224 246 269 293]
memory = 2036.482048
int3c2e [1/1], AO [0:29], ncol = 9801
kpt = [-0.26306818  0.26306818 -0.78920454]
adapted_ji_idx = [120 137 155 309 335 362]
memory = 2035.13856
int3c2e [1/1], AO [0:29], ncol = 9801
Symmetry pattern (k + [ 0.52613636 -0.52613636  0.        ])*a= 2n pi
    make_kpt for [44 53]
kpt = [ 1.05227272 -1.05227272  0.        ]
adapted_ji_idx = [177 197 218]
memory = 2035.720192
int3c2e [1/1], AO [0:29], ncol = 9801
kpt = [ 0.26306818 -0.26306818 -0.78920454]
adapted_ji_idx = [231 254 278 303 329 356]
memory = 2035.515392
int3c2e [1/1], AO [0:29], ncol = 9801
Cholesky decomposition for j2c at kpt 17
Symmetry pattern (k - [ 0.78920454 -0.26306818 -0.26306818])*a= 2n pi
    make_kpt for uniq_kptji_ids [17 26 34 37]
kpt = [ 0.78920454 -0.26306818 -0.26306818]
adapted_ji_idx = [ 49  60  85  99 184 204 247 270]
memory = 2035.388416
int3c2e [1/1], AO [0:29], ncol = 9801
kpt = [ 0.         -1.05227272  0.52613636]
adapted_ji_idx = [ 69 111 222 291]
memory = 2036.08064
int3c2e [1/1], AO [0:29], ncol = 9801
kpt = [ 0.          0.52613636 -1.05227272]
adapted_ji_idx = [121 138 310 336]
memory = 2036.260864
int3c2e [1/1], AO [0:29], ncol = 9801
kpt = [-0.78920454 -0.26306818 -0.26306818]
adapted_ji_idx = [153 360]
memory = 2036.105216
int3c2e [1/1], AO [0:29], ncol = 9801
Symmetry pattern (k + [ 0.78920454 -0.26306818 -0.26306818])*a= 2n pi
    make_kpt for [46 49 55 56]
kpt = [ 1.57840907 -0.52613636 -0.52613636]
adapted_ji_idx = [179]
memory = 2035.830784
int3c2e [1/1], AO [0:29], ncol = 9801
kpt = [ 0.78920454 -1.3153409   0.26306818]
adapted_ji_idx = [196 217]
memory = 2034.85184
int3c2e [1/1], AO [0:29], ncol = 9801
kpt = [ 0.78920454  0.26306818 -1.3153409 ]
adapted_ji_idx = [233 305]
memory = 2034.663424
int3c2e [1/1], AO [0:29], ncol = 9801
kpt = [-3.90049961e-18 -5.26136358e-01 -5.26136358e-01]
adapted_ji_idx = [253 277 328 355]
memory = 2034.982912
int3c2e [1/1], AO [0:29], ncol = 9801
Cholesky decomposition for j2c at kpt 18
Symmetry pattern (k - [ 1.05227272  0.         -0.52613636])*a= 2n pi
    make_kpt for uniq_kptji_ids [18 23 35 36]
kpt = [ 1.05227272  0.         -0.52613636]
adapted_ji_idx = [ 50  86 185 248]
memory = 2034.74944
int3c2e [1/1], AO [0:29], ncol = 9801
kpt = [ 0.26306818 -0.78920454  0.26306818]
adapted_ji_idx = [ 58  70  97 112 202 223 268 292]
memory = 2035.556352
int3c2e [1/1], AO [0:29], ncol = 9801
kpt = [ 0.26306818  0.78920454 -1.3153409 ]
adapted_ji_idx = [122 311]
memory = 2035.761152
int3c2e [1/1], AO [0:29], ncol = 9801
kpt = [-5.26136358e-01 -3.90049961e-18 -5.26136358e-01]
adapted_ji_idx = [136 154 334 361]
memory = 2035.77344
int3c2e [1/1], AO [0:29], ncol = 9801
Symmetry pattern (k + [ 1.05227272  0.         -0.52613636])*a= 2n pi
    make_kpt for [45 52 54 57]
kpt = [ 1.3153409  -0.78920454 -0.26306818]
adapted_ji_idx = [178 198]
memory = 2035.331072
int3c2e [1/1], AO [0:29], ncol = 9801
kpt = [ 0.52613636 -1.57840907  0.52613636]
adapted_ji_idx = [216]
memory = 2035.703808
int3c2e [1/1], AO [0:29], ncol = 9801
kpt = [ 0.52613636  0.         -1.05227272]
adapted_ji_idx = [232 255 304 330]
memory = 2034.921472
int3c2e [1/1], AO [0:29], ncol = 9801
kpt = [-0.26306818 -0.78920454 -0.26306818]
adapted_ji_idx = [276 354]
memory = 2035.212288
int3c2e [1/1], AO [0:29], ncol = 9801
Cholesky decomposition for j2c at kpt 19
Symmetry pattern (k - [ 0.78920454 -0.78920454  0.26306818])*a= 2n pi
    make_kpt for uniq_kptji_ids [19 28]
kpt = [ 0.78920454 -0.78920454  0.26306818]
adapted_ji_idx = [ 51  62  74 186 206 227]
memory = 2035.912704
int3c2e [1/1], AO [0:29], ncol = 9801
kpt = [-3.90049961e-18  3.90049961e-18 -5.26136358e-01]
adapted_ji_idx = [ 78  92 107 123 140 158 240 263 287 312 338 365]
memory = 2036.3264
int3c2e [1/1], AO [0:29], ncol = 9801
Symmetry pattern (k + [ 0.78920454 -0.78920454  0.26306818])*a= 2n pi
    make_kpt for [41 58]
kpt = [ 0.78920454 -0.78920454 -0.26306818]
adapted_ji_idx = [174 194 215 237 260 284]
memory = 2035.56864
int3c2e [1/1], AO [0:29], ncol = 9801
kpt = [-7.80099921e-18  7.80099921e-18 -1.05227272e+00]
adapted_ji_idx = [300 326 353]
memory = 2034.946048
int3c2e [1/1], AO [0:29], ncol = 9801
Cholesky decomposition for j2c at kpt 20
Symmetry pattern (k - [ 1.05227272 -0.52613636  0.        ])*a= 2n pi
    make_kpt for uniq_kptji_ids [20 27 29 32]
kpt = [ 1.05227272 -0.52613636  0.        ]
adapted_ji_idx = [ 52  63 187 207]
memory = 2036.744192
int3c2e [1/1], AO [0:29], ncol = 9801
kpt = [ 0.26306818 -1.3153409   0.78920454]
adapted_ji_idx = [ 72 225]
memory = 2036.465664
int3c2e [1/1], AO [0:29], ncol = 9801
kpt = [ 0.26306818  0.26306818 -0.78920454]
adapted_ji_idx = [ 79  93 124 141 241 264 313 339]
memory = 2036.310016
int3c2e [1/1], AO [0:29], ncol = 9801
kpt = [-5.26136358e-01 -5.26136358e-01  7.80099921e-18]
adapted_ji_idx = [105 156 285 363]
memory = 2036.252672
int3c2e [1/1], AO [0:29], ncol = 9801
Symmetry pattern (k + [ 1.05227272 -0.52613636  0.        ])*a= 2n pi
    make_kpt for [43 48 60 61]
kpt = [ 1.3153409  -0.26306818 -0.78920454]
adapted_ji_idx = [176 239]
memory = 2035.453952
int3c2e [1/1], AO [0:29], ncol = 9801
kpt = [ 0.52613636 -1.05227272  0.        ]
adapted_ji_idx = [193 214 259 283]
memory = 2036.146176
int3c2e [1/1], AO [0:29], ncol = 9801
kpt = [ 0.52613636  0.52613636 -1.57840907]
adapted_ji_idx = [302]
memory = 2036.015104
int3c2e [1/1], AO [0:29], ncol = 9801
kpt = [-0.26306818 -0.26306818 -0.78920454]
adapted_ji_idx = [325 352]
memory = 2034.835456
int3c2e [1/1], AO [0:29], ncol = 9801
Cholesky decomposition for j2c at kpt 21
Symmetry pattern (k - [ 1.3153409  -0.26306818 -0.26306818])*a= 2n pi
    make_kpt for uniq_kptji_ids [21 24 30 31]
kpt = [ 1.3153409  -0.26306818 -0.26306818]
adapted_ji_idx = [ 53 188]
memory = 2035.8144
int3c2e [1/1], AO [0:29], ncol = 9801
kpt = [ 0.52613636 -1.05227272  0.52613636]
adapted_ji_idx = [ 61  73 205 226]
memory = 2036.277248
int3c2e [1/1], AO [0:29], ncol = 9801
kpt = [ 0.52613636  0.52613636 -1.05227272]
adapted_ji_idx = [ 80 125 242 314]
memory = 2035.458048
int3c2e [1/1], AO [0:29], ncol = 9801
kpt = [-0.26306818 -0.26306818 -0.26306818]
adapted_ji_idx = [ 91 106 139 157 262 286 337 364]
memory = 2034.958336
int3c2e [1/1], AO [0:29], ncol = 9801
Symmetry pattern (k + [ 1.3153409  -0.26306818 -0.26306818])*a= 2n pi
    make_kpt for [42 51 59 62]
kpt = [ 1.05227272 -0.52613636 -0.52613636]
adapted_ji_idx = [175 195 238 261]
memory = 2035.654656
int3c2e [1/1], AO [0:29], ncol = 9801
kpt = [ 0.26306818 -1.3153409   0.26306818]
adapted_ji_idx = [213 282]
memory = 2035.4048
int3c2e [1/1], AO [0:29], ncol = 9801
kpt = [ 0.26306818  0.26306818 -1.3153409 ]
adapted_ji_idx = [301 327]
memory = 2035.347456
int3c2e [1/1], AO [0:29], ncol = 9801
kpt = [-0.52613636 -0.52613636 -0.52613636]
adapted_ji_idx = [351]
memory = 2035.204096
int3c2e [1/1], AO [0:29], ncol = 9801
    CPU time for j3c 258601.98 sec, wall time   8776.27 sec
    CPU time for Init get_k_kpts 258602.53 sec, wall time   8776.29 sec
    CPU time for get_k_kpts: make_kpt ki>=kj (0,*)      2.94 sec, wall time      0.19 sec
    CPU time for get_k_kpts: make_kpt ki>=kj (1,*)     12.77 sec, wall time      0.41 sec
    CPU time for get_k_kpts: make_kpt ki>=kj (2,*)     13.83 sec, wall time      0.44 sec
    CPU time for get_k_kpts: make_kpt ki>=kj (3,*)     19.18 sec, wall time      0.61 sec
    CPU time for get_k_kpts: make_kpt ki>=kj (4,*)     20.60 sec, wall time      0.65 sec
    CPU time for get_k_kpts: make_kpt ki>=kj (5,*)     25.60 sec, wall time      0.81 sec
    CPU time for get_k_kpts: make_kpt ki>=kj (6,*)     28.12 sec, wall time      0.89 sec
    CPU time for get_k_kpts: make_kpt ki>=kj (7,*)     32.74 sec, wall time      1.04 sec
    CPU time for get_k_kpts: make_kpt ki>=kj (8,*)     36.61 sec, wall time      1.18 sec
    CPU time for get_k_kpts: make_kpt ki>=kj (9,*)     38.39 sec, wall time      1.21 sec
    CPU time for get_k_kpts: make_kpt ki>=kj (10,*)     50.26 sec, wall time      1.65 sec
    CPU time for get_k_kpts: make_kpt ki>=kj (11,*)     50.92 sec, wall time      1.64 sec
    CPU time for get_k_kpts: make_kpt ki>=kj (12,*)     50.80 sec, wall time      1.64 sec
    CPU time for get_k_kpts: make_kpt ki>=kj (13,*)     55.08 sec, wall time      1.73 sec
    CPU time for get_k_kpts: make_kpt ki>=kj (14,*)     60.10 sec, wall time      1.89 sec
    CPU time for get_k_kpts: make_kpt ki>=kj (15,*)     58.57 sec, wall time      1.85 sec
    CPU time for get_k_kpts: make_kpt ki>=kj (16,*)     56.79 sec, wall time      1.79 sec
    CPU time for get_k_kpts: make_kpt ki>=kj (17,*)     61.38 sec, wall time      1.93 sec
    CPU time for get_k_kpts: make_kpt ki>=kj (18,*)     66.56 sec, wall time      2.09 sec
    CPU time for get_k_kpts: make_kpt ki>=kj (19,*)     69.95 sec, wall time      2.20 sec
    CPU time for get_k_kpts: make_kpt ki>=kj (20,*)     72.28 sec, wall time      2.27 sec
    CPU time for get_k_kpts: make_kpt ki>=kj (21,*)     76.57 sec, wall time      2.40 sec
    CPU time for get_k_kpts: make_kpt ki>=kj (22,*)     81.71 sec, wall time      2.57 sec
    CPU time for get_k_kpts: make_kpt ki>=kj (23,*)     81.32 sec, wall time      2.55 sec
    CPU time for get_k_kpts: make_kpt ki>=kj (24,*)     83.83 sec, wall time      2.64 sec
    CPU time for get_k_kpts: make_kpt ki>=kj (25,*)     98.61 sec, wall time      3.13 sec
    CPU time for get_k_kpts: make_kpt ki>=kj (26,*)     91.77 sec, wall time      2.88 sec
Monkhorst pack size [3 3 3] ew_eta 1.7617206716074303 ew_cut 3.993056330944369
Ewald components = 0, -0.994093035724495, 0.898112154971916
    CPU time for get_j pass 1     44.89 sec, wall time      1.49 sec
    CPU time for get_j pass 2      7.05 sec, wall time      1.06 sec
    CPU time for vj and vk 260059.38 sec, wall time   8823.38 sec
Ewald components = 9.1775830151223e-178, -596.417259326552, 523.385019500803
E1 = (-248.35421835978707-8.693373952804882e-16j)  E_coul = (45.67767192912834-1.7849705244933776e-14j)
init E= -275.708786256407
cond(S) = [7.83467950e+07 1.61950340e+07 1.61950340e+07 1.61950341e+07
 4.46837373e+08 4.32872066e+08 1.61950341e+07 4.32872060e+08
 4.46837368e+08 1.61950320e+07 4.46835710e+08 4.32870220e+08
 4.46835772e+08 1.61950290e+07 4.32868476e+08 4.32870249e+08
 4.32868478e+08 4.32868551e+08 1.61950320e+07 4.32870238e+08
 4.46835704e+08 4.32870260e+08 4.32868576e+08 4.32868488e+08
 4.46835766e+08 4.32868473e+08 1.61950289e+07]
    CPU time for initialize scf 265181.41 sec, wall time   8991.10 sec
HOMO = 0.131069195583  LUMO = 0.179390812249
     k-point                  mo_energy
   0 ( 0.000  0.000  0.000)   [-48.36093107 -20.18780358  -3.33507462  -2.019691    -1.64630417
  -1.64630414  -1.64627181   0.13051858   0.13051859   0.1310692 ] [  0.17939081   1.10099466   1.10104567   1.10104589   1.25121011
   1.33626289   1.33633553   1.4792022    1.47942776   1.47942815
   2.00798383   2.00798494   2.00802829   2.04815013   2.46397148
   2.46397247   2.46415202   2.66965905   2.66971968   2.71928947
   2.71935022   2.71935461   2.9375134    3.14097017   3.14105803
   3.43538825   3.43539238   3.43546041   3.50377511   3.50382901
   3.50383467   5.42403701   5.42404373   5.42404387   5.93789815
   6.04594242   6.04604376   6.04622988   6.04623146   6.04627778
   6.10032257   6.1843378    6.18436387   6.18436408   6.32286895
   6.32287064   6.32289422   7.14945176   7.14947294   7.14947467
   7.89331079   7.95122957   7.95124581   7.95124685   8.16767859
   8.1676953    9.36775094   9.36778093   9.36778841  16.38224256
  16.45517146  16.45517147  16.4551726   16.67668975  16.67672722
  16.67672747  17.54901038  20.22895301  20.22895323  20.22897211
  20.36463533  20.36466657  27.43494756  27.43494758  27.43499228
  30.41822247  34.54465085  34.54468317  34.54468321  44.46125474
  44.46131278  44.46131283  44.48402946  44.48410759  78.28174711
 139.34993982 139.34993983 139.34997392 151.63391259]
   1 (-0.000 -0.000  0.333)   [-48.36027614 -20.18185089  -3.15495976  -1.66565765  -1.646237
  -1.64621091  -1.05296091  -0.1431464    0.10807592   0.10887051] [  0.61380928   0.91065127   1.13816541   1.13817476   1.31578735
   1.31594634   1.34407758   1.63938626   1.69423552   1.69435349
   1.86801107   1.8680893    1.87975711   2.23343529   2.23346855
   2.31093638   2.6254117    2.66689311   2.6669314    2.73942196
   2.790985     2.79099121   2.84996428   2.9563277    3.20345241
   3.20348299   3.20997638   3.23425796   3.23428964   3.76993153
   3.76994201   4.27728661   4.59322571   4.59324406   5.28389556
   5.65976596   5.65977644   5.84175499   5.84177615   5.85425423
   6.06688558   6.0938803    6.24960694   6.249613     6.42094411
   6.69478947   6.69480839   6.93677125   6.94318248   6.94321898
   7.30975142   7.45132023   7.45133319   7.74899291   7.78064315
   7.78065479   8.73568617   8.73568671   8.75133951  16.40832511
  16.46263926  16.46357031  16.46359092  16.51972236  16.51972504
  16.58268574  17.04291924  20.20446968  20.24942982  20.24943872
  20.50712187  20.50713097  27.29969958  27.29972854  27.85817703
  30.67124441  34.45054004  34.45056201  34.51370236  44.39675183
  44.40621092  44.4062488   44.58835837  44.58843539  78.25215796
 139.24684319 139.2468658  139.65191812 152.24174457]
   2 (-0.000 -0.000  0.667)   [-48.3602766  -20.18185082  -3.15495983  -1.66565772  -1.64623705
  -1.646211    -1.05296092  -0.14314641   0.10807591   0.10887051] [  0.61380927   0.91065126   1.1381654    1.13817476   1.31578733
   1.31594635   1.34407757   1.63938625   1.69423548   1.6943535
   1.86801107   1.86808929   1.87975711   2.23343534   2.23346857
   2.31093639   2.62541194   2.66689311   2.66693141   2.73942213
   2.79098501   2.79099121   2.84996422   2.95632765   3.20345238
   3.20348293   3.20997686   3.23425794   3.23428963   3.76993163
   3.76994226   4.27728768   4.59322626   4.59324715   5.28389558
   5.65976655   5.65977659   5.841755     5.84177639   5.85425435
   6.06688562   6.0938803    6.24960705   6.24961391   6.42094474
   6.69478953   6.69480927   6.93677137   6.94318279   6.94322035
   7.30975153   7.45132028   7.45133368   7.74899285   7.78064315
   7.78065483   8.73568659   8.73568724   8.75133959  16.40832506
  16.46263925  16.46357027  16.46359086  16.51972231  16.519725
  16.58268575  17.04291934  20.20446967  20.24942983  20.24943871
  20.50712193  20.50713121  27.2996996   27.29972854  27.85817709
  30.67124444  34.45054005  34.45056207  34.51370237  44.39675182
  44.40621091  44.40624879  44.58835838  44.58843539  78.25215796
 139.24684319 139.2468658  139.65191813 152.24174458]
   3 ( 0.000  0.333 -0.000)   [-48.36027609 -20.18185089  -3.15495974  -1.66565763  -1.64623698
  -1.64621089  -1.05296091  -0.1431464    0.10807592   0.10887051] [  0.61380928   0.91065127   1.13816541   1.13817476   1.31578735
   1.31594634   1.34407758   1.63938626   1.69423552   1.69435349
   1.86801107   1.8680893    1.87975713   2.23343528   2.23346854
   2.31093639   2.62541189   2.6668931    2.6669314    2.73942204
   2.79098501   2.79099119   2.84996428   2.95632771   3.20345241
   3.20348299   3.20997661   3.23425796   3.23428961   3.76993145
   3.76994186   4.27728733   4.59322572   4.59324185   5.28389553
   5.65976552   5.65977644   5.84175499   5.84177601   5.85425426
   6.06688558   6.0938803    6.24960693   6.24961245   6.42094435
   6.69478943   6.69480769   6.93677143   6.94318249   6.94321805
   7.30975143   7.4513202    7.45133274   7.74899291   7.78064316
   7.78065478   8.73568565   8.73568659   8.75133969  16.40832511
  16.46263927  16.46357031  16.46359092  16.51972237  16.51972503
  16.58268578  17.04291892  20.20446969  20.24942983  20.24943869
  20.50712186  20.50713083  27.29969956  27.29972854  27.85817707
  30.67124443  34.45054004  34.45056198  34.51370237  44.39675183
  44.40621092  44.4062488   44.58835837  44.58843539  78.25215795
 139.24684319 139.2468658  139.65191813 152.24174458]
   4 ( 0.000  0.333  0.333)   [-48.36023612 -20.1814111   -3.14838917  -1.66051062  -1.64862553
  -1.64862549  -0.97355498  -0.08847894   0.07971774   0.07971775] [  0.69111847   0.85499025   1.01398107   1.20132495   1.20132503
   1.46553259   1.55881797   1.66837291   1.66837439   1.82158073
   1.88625647   1.88625819   1.94108356   1.98518091   2.27488557
   2.27488831   2.47551847   2.60646655   2.61133668   2.65065286
   2.65065573   2.95225659   2.97431777   3.0083953    3.04178632
   3.23713351   3.23715814   3.35719615   3.35719876   3.45242826
   3.84133262   3.84133356   4.04411155   4.71070738   5.65989441
   5.65989505   5.87346609   5.93451424   5.93451605   5.97627895
   6.12538315   6.13446381   6.13605712   6.3248657    6.32486693
   6.5198697    6.52934379   6.52934523   6.53641427   6.81423554
   7.63661383   7.74294679   7.74294951   7.89132707   7.9523642
   7.95236603   8.13535248   8.24088543   9.87063585  16.40683958
  16.4400588   16.48428046  16.48428048  16.49206167  16.49427736
  16.49427745  20.16511401  20.24923692  20.24923701  20.31209555
  20.40492435  20.46260206  27.48453184  27.48453202  27.76780023
  31.56191381  34.40301073  34.40301081  34.69231958  44.35975178
  44.40739807  44.40739815  44.57822281  44.65059565  78.25489021
 139.38785328 139.3878533  139.61183773 152.95239216]
   5 (-0.000  0.333  0.667)   [-4.83602417e+01 -2.01807318e+01 -3.14760251e+00 -1.65493792e+00
 -1.65323194e+00 -1.64743260e+00 -8.54722306e-01 -6.08048378e-02
 -2.36767093e-02  8.39512278e-02] [  0.83258446   0.91441243   0.9190976    1.1900054    1.22303789
   1.40248336   1.59664968   1.60969247   1.63973727   1.84233403
   1.89670261   2.02503529   2.05952095   2.20172446   2.31238602
   2.39476758   2.41072315   2.42061676   2.47196214   2.51496993
   2.70806651   2.78410214   2.79094909   2.84783692   2.96466015
   3.02559857   3.24234911   3.25548678   3.33712567   3.36537824
   3.66454282   3.8784622    4.65476853   4.8564357    5.4418365
   5.45933938   5.48066068   5.72762277   5.76196665   5.89847633
   6.0677723    6.22012632   6.29916597   6.31927537   6.37117352
   6.52814033   6.55424632   6.62250198   6.7146326    6.85731558
   7.38515623   7.56922139   7.64170458   7.69119484   7.82191827
   8.11373976   8.58144867   8.96010756   9.25162294  16.39876404
  16.4173341   16.41816016  16.46200937  16.47360319  16.4914348
  16.49781101  18.13898876  20.03189061  20.09965165  20.13366155
  20.29541102  20.41993542  27.36825811  27.41772316  27.85701413
  31.10353302  34.39361376  34.57654571  34.65675924  44.32836042
  44.37613772  44.38375285  44.7280838   44.75501035  78.25217454
 139.30329361 139.3400343  139.65116559 152.86822673]
   6 ( 0.000  0.667 -0.000)   [-48.3602766  -20.18185082  -3.15495983  -1.66565772  -1.64623705
  -1.64621099  -1.05296092  -0.14314641   0.10807591   0.10887051] [  0.61380927   0.91065126   1.1381654    1.13817475   1.31578733
   1.31594635   1.34407756   1.63938624   1.69423548   1.6943535
   1.86801107   1.86808929   1.87975701   2.23343533   2.23346855
   2.31093636   2.62541121   2.6668931    2.66693141   2.73942167
   2.79098501   2.79099116   2.84996423   2.95632752   3.20345237
   3.20348294   3.20997551   3.23425794   3.23428961   3.76993147
   3.7699419    4.27728455   4.59322506   4.59324107   5.28389528
   5.65976526   5.65977631   5.84175492   5.84177598   5.85425394
   6.06688562   6.09388023   6.24960673   6.24961241   6.42094265
   6.69478907   6.69480737   6.93677098   6.94318229   6.94321788
   7.30975151   7.45132004   7.45133261   7.74899283   7.78064315
   7.78065483   8.73568552   8.73568631   8.75133877  16.40832505
  16.46263925  16.46357027  16.46359085  16.5197223   16.51972495
  16.58268565  17.04291821  20.20446967  20.24942983  20.24943868
  20.50712184  20.50713084  27.29969956  27.29972854  27.8581769
  30.67124433  34.45054003  34.45056197  34.51370237  44.39675182
  44.40621091  44.40624879  44.58835837  44.58843539  78.25215794
 139.24684319 139.2468658  139.65191811 152.24174455]
   7 ( 0.000  0.667  0.333)   [-4.83602418e+01 -2.01807318e+01 -3.14760253e+00 -1.65493794e+00
 -1.65323196e+00 -1.64743261e+00 -8.54722306e-01 -6.08048390e-02
 -2.36767102e-02  8.39512276e-02] [  0.83258446   0.91441243   0.9190976    1.1900054    1.22303789
   1.40248336   1.59664968   1.60969247   1.63973727   1.84233403
   1.89670261   2.02503529   2.05952096   2.20172446   2.31238603
   2.39476758   2.41072315   2.42061676   2.47196214   2.51496994
   2.70806655   2.78410225   2.79094909   2.84783692   2.96466014
   3.02559857   3.24234938   3.25548679   3.33712566   3.36537829
   3.66454285   3.87846222   4.65476915   4.85643594   5.44183653
   5.45933949   5.48066068   5.72762277   5.76196665   5.89847634
   6.0677726    6.22012632   6.29916597   6.31927541   6.37117381
   6.52814037   6.55424633   6.62250202   6.71463275   6.85731584
   7.38515623   7.56922143   7.64170463   7.69119484   7.8219183
   8.11373976   8.58144874   8.9601077    9.25162425  16.39876404
  16.41733409  16.41816015  16.46200937  16.47360318  16.4914348
  16.49781101  18.13898973  20.03189061  20.09965164  20.13366156
  20.29541102  20.41993543  27.36825811  27.41772316  27.85701413
  31.10353315  34.39361376  34.57654572  34.65675926  44.32836042
  44.37613772  44.38375285  44.72808382  44.75501036  78.25217455
 139.30329361 139.3400343  139.65116559 152.86822674]
   8 ( 0.000  0.667  0.667)   [-48.36023674 -20.18141119  -3.14838937  -1.66051086  -1.64862566
  -1.6486256   -0.97355499  -0.08847895   0.07971773   0.07971773] [  0.69111844   0.85499025   1.01398107   1.20132491   1.20132499
   1.46553257   1.55881798   1.6683729    1.66837438   1.8215807
   1.88625651   1.88625821   1.94108354   1.9851809    2.27488554
   2.27488826   2.4755185    2.60646654   2.61133661   2.65065286
   2.65065575   2.95225659   2.9743178    3.00839518   3.0417863
   3.23713359   3.23715819   3.35719624   3.35719887   3.45242939
   3.84133248   3.84133351   4.04411133   4.7107125    5.65989443
   5.65989505   5.87346609   5.93451435   5.93451609   5.97627902
   6.12538323   6.13446377   6.13605742   6.32486554   6.32486677
   6.51986981   6.52934394   6.52934536   6.53641438   6.81423946
   7.63661382   7.74294674   7.74294946   7.89132687   7.95236419
   7.95236602   8.13535604   8.24088538   9.87065036  16.40683947
  16.44005871  16.48428041  16.48428042  16.49206162  16.49427725
  16.49427734  20.16511396  20.24923695  20.24923708  20.3120976
  20.40492439  20.46261645  27.48453184  27.48453201  27.76780047
  31.56191798  34.40301074  34.40301082  34.69232016  44.35975178
  44.40739806  44.40739814  44.57822282  44.6505959   78.25489023
 139.38785328 139.3878533  139.61183776 152.95239274]
   9 ( 0.333  0.000  0.000)   [-48.36027605 -20.18185097  -3.15495975  -1.66565756  -1.64623695
  -1.64621098  -1.05296091  -0.14314641   0.10807594   0.1088705 ] [  0.61380929   0.91065126   1.13816541   1.13817475   1.31578727
   1.31594642   1.34407754   1.63938636   1.69423577   1.69435323
   1.86801078   1.86808961   1.87975749   2.23343952   2.23346417
   2.31093649   2.62541253   2.6668939    2.66693051   2.73942298
   2.79098539   2.79099115   2.84996475   2.95632798   3.20345235
   3.20348303   3.20997759   3.23426438   3.23428416   3.76993003
   3.76994404   4.27728962   4.59323323   4.59323725   5.28389583
   5.65976414   5.65977847   5.84175674   5.8417745    5.85425455
   6.06688553   6.09388029   6.24960934   6.24961073   6.42094561
   6.69478725   6.69481052   6.93677177   6.94318324   6.94321831
   7.3097516    7.45132237   7.45133142   7.74899295   7.78064266
   7.78065538   8.73568613   8.73568683   8.75134041  16.40832512
  16.46263924  16.46357041  16.46359087  16.51972249  16.51972493
  16.58268583  17.04291938  20.20446975  20.24942976  20.2494387
  20.50712202  20.5071309   27.29969968  27.29972847  27.85817711
  30.67124454  34.4505402   34.45056183  34.5137024   44.39675183
  44.40621089  44.40624882  44.58835835  44.58843542  78.25215795
 139.2468432  139.24686579 139.65191811 152.24174457]
  10 ( 0.333  0.000  0.333)   [-48.36023582 -20.18142273  -3.14844269  -1.66060083  -1.64863602
  -1.64863369  -0.97295651  -0.09022112   0.0796595    0.08000771] [  0.69100135   0.85515347   1.01382833   1.20139663   1.2015336
   1.46564931   1.5588905    1.66835286   1.66841944   1.82157732
   1.88621612   1.88629266   1.94117432   1.98526627   2.27481472
   2.27484366   2.47551458   2.60634826   2.61133619   2.65065239
   2.65071598   2.95218295   2.97422844   3.00835455   3.04174408
   3.2371336    3.23717783   3.35717124   3.35725017   3.45252128
   3.84132719   3.84139684   4.0441129    4.71079628   5.65988764
   5.65989722   5.8734033    5.9345055    5.93455046   5.97629874
   6.12536065   6.13441566   6.13605346   6.32486022   6.32487161
   6.51984494   6.5293554    6.52937694   6.53645099   6.81426619
   7.63664442   7.74292451   7.74294573   7.89131848   7.95233477
   7.95235682   8.13537691   8.24090362   9.87068642  16.40683947
  16.44005756  16.48426587  16.48427255  16.49209435  16.49425279
  16.49429388  20.16509364  20.24923754  20.24925831  20.31210597
  20.40490249  20.46262324  27.48453106  27.48457719  27.767755
  31.56190527  34.40297764  34.40301102  34.69235182  44.35981013
  44.40733978  44.4073982   44.57828114  44.65054341  78.25489039
 139.3878532  139.38788743 139.61180314 152.95238581]
  11 ( 0.333 -0.000  0.667)   [-4.83602421e+01 -2.01807457e+01 -3.14763441e+00 -1.65489638e+00
 -1.65338193e+00 -1.64744522e+00 -8.54676464e-01 -6.15053847e-02
 -2.57466495e-02  8.38891561e-02] [  0.83263337   0.91449082   0.9191268    1.19020416   1.22303515
   1.40247347   1.59673743   1.60972031   1.63976743   1.84231061
   1.89680369   2.02522235   2.05945016   2.20169648   2.31233203
   2.39469114   2.41080198   2.42060667   2.47194238   2.51497327
   2.70798382   2.78424616   2.79089108   2.84781963   2.96469566
   3.02549688   3.24232296   3.25541153   3.33714575   3.36536467
   3.66460371   3.87843312   4.65480463   4.8564173    5.44183639
   5.45930566   5.48066682   5.72764196   5.76199386   5.89845983
   6.06781774   6.22012492   6.29917732   6.3192875    6.37118527
   6.52813341   6.55425521   6.62249441   6.71458795   6.85728901
   7.38516448   7.56920922   7.6416789    7.69119301   7.82192387
   8.11377415   8.58141521   8.96011392   9.2516294   16.39877147
  16.41733452  16.41815914  16.46196982  16.47363604  16.49145884
  16.49778692  18.1389694   20.03190116  20.09966152  20.13365529
  20.29541882  20.41991315  27.36821219  27.41774345  27.85703554
  31.10352437  34.39364701  34.57652974  34.65674185  44.3283312
  44.37610853  44.38380635  44.72803283  44.75506848  78.2521741
 139.30325941 139.34005112 139.65118257 152.86822181]
  12 ( 0.333  0.333  0.000)   [-48.36023577 -20.18142273  -3.14844267  -1.66060081  -1.64863601
  -1.64863368  -0.97295651  -0.09022112   0.0796595    0.08000771] [  0.69100135   0.85515347   1.01382833   1.20139663   1.2015336
   1.46564931   1.5588905    1.66835286   1.66841944   1.82157731
   1.88621612   1.88629266   1.94117433   1.98526627   2.27481472
   2.27484366   2.47551458   2.60634826   2.61133631   2.6506524
   2.65071597   2.95218295   2.97422844   3.00835455   3.04174417
   3.2371336    3.23717783   3.35717126   3.35725016   3.45252154
   3.84132727   3.84139683   4.04411284   4.71079983   5.65988764
   5.65989723   5.87340329   5.93450553   5.93455047   5.97629875
   6.12536065   6.13441565   6.13605344   6.32486021   6.32487161
   6.51984492   6.52935541   6.52937688   6.53645104   6.81426851
   7.63664442   7.74292452   7.74294573   7.89131853   7.95233479
   7.95235682   8.13537915   8.24090363   9.87069597  16.40683948
  16.44005756  16.48426588  16.48427256  16.49209438  16.49425279
  16.49429388  20.16509365  20.24923754  20.24925831  20.31210716
  20.40490249  20.46263126  27.48453106  27.48457719  27.76775512
  31.56190787  34.40297764  34.40301102  34.69235225  44.35981013
  44.40733978  44.4073982   44.57828114  44.65054359  78.25489039
 139.3878532  139.38788743 139.61180317 152.95238639]
  13 ( 0.333  0.333  0.333)   [-48.36027571 -20.18185073  -3.15495954  -1.66565749  -1.64623683
  -1.64621073  -1.05296091  -0.14314639   0.10807594   0.10887053] [  0.61380927   0.91065114   1.13816534   1.13817468   1.31578698
   1.31594603   1.34407708   1.63938711   1.69423483   1.69435263
   1.86800972   1.86808816   1.87975709   2.23342915   2.23345916
   2.31093438   2.62540595   2.66688476   2.66692249   2.73942399
   2.79098603   2.79099197   2.84994634   2.95632803   3.20344972
   3.20348052   3.20997006   3.23425774   3.23428486   3.76990922
   3.76991222   4.27727586   4.59320418   4.59321107   5.28389515
   5.65976058   5.65977357   5.84175314   5.84177279   5.85425232
   6.06688414   6.09388055   6.24960081   6.24960351   6.42093794
   6.69477787   6.69479602   6.93676924   6.94317042   6.94320376
   7.30974923   7.45130513   7.45131556   7.74899227   7.78064165
   7.78065362   8.73568175   8.73568343   8.75133439  16.40832522
  16.46263925  16.46357036  16.46359087  16.51972244  16.51972499
  16.58268542  17.04291665  20.20446961  20.24942956  20.24943843
  20.50711911  20.50712762  27.29969954  27.29972848  27.8581763
  30.67124321  34.45053972  34.45056143  34.51370217  44.3967518
  44.4062109   44.4062488   44.58835835  44.58843539  78.25215788
 139.24684318 139.24686579 139.65191796 152.24174416]
  14 ( 0.333  0.333  0.667)   [-4.83602418e+01 -2.01807457e+01 -3.14763432e+00 -1.65489635e+00
 -1.65338183e+00 -1.64744511e+00 -8.54676463e-01 -6.15053912e-02
 -2.57466540e-02  8.38891738e-02] [  0.83263337   0.91449081   0.91912685   1.19020409   1.22303547
   1.40247382   1.59673897   1.60972033   1.63976743   1.84231123
   1.89680118   2.02521991   2.05944887   2.20169312   2.31232611
   2.39468854   2.41079396   2.42059628   2.47194077   2.5149601
   2.70798317   2.78424423   2.79088073   2.84781938   2.96469297
   3.02549422   3.24232578   3.25540621   3.33713288   3.36536568
   3.66459913   3.87842988   4.65479621   4.85641684   5.44183188
   5.459305     5.48066673   5.72763986   5.76199206   5.89845934
   6.06781695   6.22012386   6.29917544   6.31928741   6.37118444
   6.52812828   6.55425502   6.62249185   6.714588     6.85728702
   7.38516403   7.5692092    7.64167594   7.69119167   7.82192361
   8.11377046   8.58141337   8.96011107   9.2516212   16.39877134
  16.41733457  16.41815916  16.46196987  16.47363611  16.49145888
  16.49778698  18.13895662  20.03190078  20.09966104  20.13365489
  20.29541879  20.41991298  27.36821197  27.41774259  27.85703514
  31.10352115  34.39364681  34.57652947  34.65674126  44.32833118
  44.37610852  44.38380633  44.72803222  44.75506841  78.25217369
 139.30325938 139.34005102 139.65118252 152.86821808]
  15 ( 0.333  0.667 -0.000)   [-4.83602421e+01 -2.01807457e+01 -3.14763441e+00 -1.65489638e+00
 -1.65338193e+00 -1.64744522e+00 -8.54676464e-01 -6.15053837e-02
 -2.57466491e-02  8.38891541e-02] [  0.83263337   0.91449082   0.91912679   1.19020416   1.22303515
   1.40247347   1.59673743   1.60972031   1.63976743   1.84231061
   1.89680368   2.02522234   2.05945016   2.20169648   2.31233203
   2.39469114   2.41080199   2.42060666   2.47194241   2.51497327
   2.70798401   2.7842467    2.79089105   2.84781964   2.96469566
   3.02549691   3.24232536   3.25541142   3.33714575   3.36536466
   3.66460363   3.87843325   4.65480621   4.85641593   5.44183617
   5.45930616   5.48066683   5.72764198   5.76199386   5.89846004
   6.0678193    6.22012492   6.29917732   6.31928734   6.37118751
   6.52813329   6.5542552    6.62249447   6.71458721   6.85729019
   7.38516448   7.56920943   7.64167852   7.69119301   7.82192406
   8.11377414   8.58141575   8.96011319   9.25163415  16.39877151
  16.41733452  16.41815914  16.46196983  16.47363604  16.49145883
  16.49778692  18.13897591  20.03190116  20.09966152  20.13365538
  20.29541884  20.41991309  27.36821219  27.41774345  27.85703555
  31.10352506  34.39364701  34.5765297   34.65674196  44.3283312
  44.37610853  44.38380635  44.7280329   44.75506846  78.25217414
 139.30325941 139.34005112 139.65118257 152.868222  ]
  16 ( 0.333  0.667  0.333)   [-4.83602418e+01 -2.01807457e+01 -3.14763434e+00 -1.65489637e+00
 -1.65338185e+00 -1.64744512e+00 -8.54676463e-01 -6.15053907e-02
 -2.57466554e-02  8.38891720e-02] [  0.83263337   0.91449081   0.91912685   1.19020408   1.22303547
   1.40247381   1.59673897   1.60972033   1.63976743   1.84231122
   1.89680118   2.02521991   2.05944887   2.20169312   2.31232607
   2.39468854   2.41079395   2.42059627   2.47194076   2.51496006
   2.70798312   2.78424408   2.79088072   2.84781939   2.96469296
   3.02549423   3.24232517   3.25540624   3.33713288   3.36536544
   3.66459912   3.87842988   4.65479591   4.85641701   5.44183192
   5.45930487   5.4806667    5.72763983   5.76199207   5.89845928
   6.06781656   6.22012386   6.29917543   6.31928742   6.37118389
   6.5281283    6.55425497   6.62249188   6.71458807   6.85728672
   7.38516401   7.56920914   7.64167599   7.69119167   7.82192354
   8.11377045   8.58141322   8.96011115   9.25162012  16.39877132
  16.41733457  16.41815916  16.46196985  16.47363611  16.49145889
  16.49778698  18.13895506  20.03190077  20.09966103  20.13365485
  20.29541878  20.41991298  27.36821196  27.41774259  27.85703514
  31.10352099  34.3936468   34.57652947  34.65674124  44.32833118
  44.37610852  44.38380633  44.72803221  44.75506841  78.25217368
 139.30325938 139.34005102 139.65118252 152.86821805]
  17 ( 0.333  0.667  0.667)   [-4.83602417e+01 -2.01807319e+01 -3.14760256e+00 -1.65493792e+00
 -1.65323196e+00 -1.64743261e+00 -8.54722306e-01 -6.08048497e-02
 -2.36767130e-02  8.39512372e-02] [  0.83258448   0.91441241   0.91909765   1.19000529   1.22303822
   1.40248368   1.59665115   1.60969248   1.63973726   1.84233458
   1.89670019   2.02503283   2.05951956   2.20172114   2.31238015
   2.39476488   2.41071539   2.42060664   2.47196081   2.51495726
   2.70806633   2.78410087   2.79093809   2.84783644   2.96465759
   3.02559574   3.2423534    3.25548175   3.3371128    3.36537952
   3.66453821   3.87846005   4.65476096   4.85643602   5.44183223
   5.45933915   5.48066071   5.72762047   5.76196505   5.89847579
   6.06777175   6.22012517   6.29916429   6.31927534   6.37117282
   6.52813535   6.55424603   6.62249952   6.71463349   6.85731398
   7.38515579   7.5692213    7.64170177   7.6911935    7.82191803
   8.11373589   8.58144695   8.96010535   9.25161292  16.39876392
  16.41733411  16.41816009  16.46200942  16.47360319  16.49143474
  16.49781099  18.13896394  20.0318904   20.09965107  20.13366087
  20.29541083  20.41993534  27.36825788  27.41772229  27.85701376
  31.10352717  34.39361354  34.57654543  34.65675821  44.3283604
  44.3761377   44.38375281  44.72808276  44.75501031  78.25217374
 139.30329359 139.34003419 139.65116555 152.86821938]
  18 ( 0.667  0.000  0.000)   [-48.3602765  -20.18185084  -3.15495982  -1.66565767  -1.64623705
  -1.64621102  -1.05296092  -0.14314641   0.10807593   0.10887049] [  0.61380927   0.91065125   1.13816541   1.13817473   1.31578729
   1.31594639   1.34407752   1.63938635   1.6942358    1.69435317
   1.86801076   1.86808963   1.87975744   2.23343952   2.23346425
   2.31093649   2.62541226   2.66689394   2.6669305    2.73942281
   2.79098536   2.79099117   2.8499647    2.95632787   3.20345228
   3.20348301   3.20997709   3.23426437   3.23428414   3.76993014
   3.76994408   4.27728828   4.59323304   4.59323888   5.28389573
   5.65976451   5.65977834   5.84175679   5.84177454   5.8542544
   6.06688557   6.09388023   6.24960945   6.24961108   6.42094486
   6.69478726   6.6948108    6.93677147   6.9431834    6.9432189
   7.30975164   7.45132238   7.45133156   7.74899289   7.78064271
   7.78065535   8.73568616   8.73568718   8.75133992  16.40832506
  16.46263922  16.46357032  16.46359083  16.51972241  16.51972489
  16.58268575  17.04291912  20.20446973  20.24942975  20.24943872
  20.50712206  20.50713099  27.29969967  27.29972848  27.85817702
  30.67124449  34.45054022  34.45056186  34.51370239  44.39675183
  44.40621089  44.40624882  44.58835835  44.58843542  78.25215795
 139.2468432  139.24686579 139.6519181  152.24174456]
  19 ( 0.667  0.000  0.333)   [-4.83602421e+01 -2.01807456e+01 -3.14763442e+00 -1.65489641e+00
 -1.65338195e+00 -1.64744522e+00 -8.54676465e-01 -6.15053863e-02
 -2.57466520e-02  8.38891560e-02] [  0.83263336   0.91449082   0.91912679   1.19020416   1.22303515
   1.40247347   1.59673743   1.60972031   1.63976743   1.8423106
   1.89680369   2.02522235   2.05945015   2.20169649   2.31233203
   2.39469114   2.41080199   2.42060666   2.47194239   2.51497328
   2.70798384   2.78424619   2.7908911    2.84781964   2.96469565
   3.02549688   3.24232323   3.25541154   3.33714575   3.36536467
   3.66460366   3.87843312   4.65480488   4.85641738   5.44183641
   5.4593057    5.4806668    5.72764196   5.76199384   5.89845984
   6.06781791   6.22012493   6.2991773    6.31928748   6.37118551
   6.52813338   6.55425522   6.62249443   6.71458796   6.85728914
   7.38516446   7.56920924   7.64167893   7.69119301   7.82192389
   8.11377415   8.58141528   8.96011396   9.25163005  16.39877146
  16.41733452  16.41815912  16.46196981  16.47363603  16.49145884
  16.49778691  18.13897012  20.03190113  20.0996615   20.1336553
  20.29541884  20.41991314  27.36821219  27.41774346  27.85703554
  31.10352445  34.393647    34.57652975  34.65674186  44.3283312
  44.37610854  44.38380635  44.72803284  44.75506848  78.2521741
 139.30325941 139.34005112 139.65118257 152.86822185]
  20 ( 0.667  0.000  0.667)   [-48.36023657 -20.18142272  -3.14844288  -1.66060103  -1.64863616
  -1.64863385  -0.97295652  -0.09022113   0.07965949   0.0800077 ] [  0.69100131   0.85515347   1.01382833   1.20139658   1.20153356
   1.4656493    1.5588905    1.66835285   1.66841942   1.82157729
   1.88621615   1.88629269   1.94117428   1.98526627   2.27481468
   2.27484361   2.47551462   2.60634825   2.61133604   2.65065239
   2.65071598   2.95218295   2.97422847   3.00835447   3.04174377
   3.23713365   3.23717786   3.35717134   3.35725024   3.45251727
   3.84132711   3.84139675   4.04411272   4.71077845   5.65988765
   5.65989723   5.8734033    5.93450558   5.93455051   5.97629881
   6.1253607    6.13441562   6.13605296   6.32486005   6.32487147
   6.51984505   6.52935554   6.52937708   6.53645083   6.81425245
   7.63664441   7.74292446   7.74294565   7.8913181    7.95233476
   7.9523568    8.13536406   8.24090357   9.87063582  16.40683936
  16.44005745  16.48426581  16.4842725   16.49209421  16.49425269
  16.49429376  20.1650936   20.2492376   20.24925831  20.31209962
  20.40490253  20.46257795  27.48453105  27.48457718  27.76775414
  31.56189176  34.40297765  34.40301103  34.69234986  44.35981013
  44.40733977  44.40739819  44.57828114  44.6505426   78.25489036
 139.3878532  139.38788743 139.61180303 152.95238387]
  21 ( 0.667  0.333  0.000)   [-4.83602421e+01 -2.01807456e+01 -3.14763440e+00 -1.65489640e+00
 -1.65338193e+00 -1.64744520e+00 -8.54676464e-01 -6.15053846e-02
 -2.57466504e-02  8.38891544e-02] [  0.83263337   0.91449082   0.91912679   1.19020416   1.22303515
   1.40247347   1.59673743   1.60972031   1.63976743   1.8423106
   1.89680369   2.02522234   2.05945016   2.20169649   2.31233204
   2.39469114   2.41080199   2.42060666   2.47194241   2.51497327
   2.707984     2.78424662   2.79089107   2.84781963   2.96469566
   3.0254969    3.24232515   3.25541145   3.33714574   3.36536463
   3.66460359   3.87843323   4.65480588   4.85641617   5.44183621
   5.45930609   5.48066682   5.72764199   5.76199385   5.89846002
   6.06781918   6.22012493   6.2991773    6.31928735   6.37118735
   6.52813328   6.5542552    6.62249444   6.71458731   6.85729007
   7.38516447   7.56920941   7.64167859   7.69119301   7.82192405
   8.11377415   8.58141573   8.96011332   9.25163355  16.39877149
  16.41733452  16.41815912  16.46196983  16.47363604  16.49145883
  16.49778692  18.13897558  20.03190114  20.09966151  20.13365538
  20.29541886  20.41991309  27.36821219  27.41774345  27.85703554
  31.10352501  34.39364701  34.57652971  34.65674195  44.3283312
  44.37610854  44.38380635  44.72803289  44.75506846  78.25217414
 139.30325941 139.34005112 139.65118257 152.86822201]
  22 ( 0.667  0.333  0.333)   [-4.83602415e+01 -2.01807317e+01 -3.14760243e+00 -1.65493789e+00
 -1.65323184e+00 -1.64743255e+00 -8.54722305e-01 -6.08048491e-02
 -2.36767189e-02  8.39512465e-02] [  0.83258448   0.91441241   0.91909766   1.19000531   1.22303823
   1.4024837    1.59665118   1.60969251   1.63973723   1.84233456
   1.89670016   2.02503282   2.05951958   2.20172115   2.31238022
   2.39476485   2.41071538   2.42060662   2.47196084   2.51495725
   2.70806643   2.7841011    2.79093816   2.84783649   2.96465755
   3.02559577   3.24235447   3.25548179   3.33711286   3.36537947
   3.66453802   3.87846001   4.65476166   4.85643597   5.44183215
   5.45933934   5.48066066   5.72762052   5.76196492   5.89847585
   6.06777266   6.22012528   6.29916424   6.3192753    6.37117405
   6.5281353    6.55424607   6.6224995    6.71463318   6.85731448
   7.38515575   7.56922146   7.64170184   7.69119353   7.82191811
   8.11373605   8.58144732   8.9601052    9.25161552  16.39876391
  16.41733416  16.41816017  16.46200939  16.47360325  16.49143483
  16.49781106  18.13896727  20.03189036  20.09965105  20.13366096
  20.29541092  20.41993529  27.36825788  27.41772231  27.85701375
  31.10352753  34.39361356  34.57654543  34.65675828  44.3283604
  44.3761377   44.3837528   44.7280828   44.7550103   78.25217376
 139.30329359 139.34003419 139.65116555 152.8682195 ]
  23 ( 0.667  0.333  0.667)   [-4.83602421e+01 -2.01807457e+01 -3.14763444e+00 -1.65489643e+00
 -1.65338194e+00 -1.64744519e+00 -8.54676466e-01 -6.15053937e-02
 -2.57466558e-02  8.38891622e-02] [  0.83263336   0.9144908    0.91912685   1.19020407   1.22303546
   1.4024738    1.59673896   1.6097203    1.63976748   1.84231125
   1.89680123   2.02521991   2.05944885   2.20169311   2.31232596
   2.39468858   2.41079395   2.42059629   2.47194076   2.51496005
   2.70798309   2.78424413   2.79088062   2.84781934   2.964693
   3.02549422   3.24232525   3.25540617   3.33713283   3.3653654
   3.6645992    3.87843004   4.65479609   4.8564168    5.441832
   5.45930502   5.48066673   5.72763981   5.7619922    5.8984593
   6.06781645   6.22012378   6.29917545   6.3192874    6.3711837
   6.52812823   6.55425489   6.62249189   6.71458818   6.85728692
   7.38516402   7.56920906   7.64167587   7.69119164   7.82192355
   8.11377029   8.58141305   8.96011116   9.25162024  16.39877131
  16.41733452  16.41815906  16.46196989  16.47363605  16.4914588
  16.49778691  18.13895511  20.03190083  20.09966103  20.13365476
  20.29541871  20.41991303  27.36821194  27.41774257  27.85703516
  31.10352103  34.39364679  34.57652947  34.65674124  44.32833117
  44.37610851  44.38380633  44.72803222  44.75506842  78.25217368
 139.30325938 139.34005102 139.65118252 152.86821807]
  24 ( 0.667  0.667  0.000)   [-48.36023657 -20.18142272  -3.14844288  -1.66060103  -1.64863616
  -1.64863385  -0.97295652  -0.09022113   0.07965949   0.0800077 ] [  0.69100131   0.85515347   1.01382833   1.20139658   1.20153356
   1.4656493    1.5588905    1.66835285   1.66841942   1.82157729
   1.88621615   1.88629269   1.94117428   1.98526627   2.27481468
   2.27484362   2.47551461   2.60634825   2.61133614   2.65065241
   2.65071596   2.95218295   2.97422847   3.00835447   3.04174386
   3.23713366   3.23717788   3.35717135   3.35725022   3.45251792
   3.84132715   3.84139673   4.04411265   4.71078413   5.65988765
   5.65989723   5.87340329   5.93450559   5.93455052   5.97629881
   6.1253607    6.13441561   6.13605306   6.32486004   6.32487147
   6.51984502   6.52935554   6.52937702   6.53645089   6.81425561
   7.63664441   7.74292446   7.74294564   7.89131816   7.95233477
   7.95235679   8.13536744   8.24090357   9.87065048  16.40683936
  16.44005745  16.48426582  16.48427251  16.49209424  16.49425268
  16.49429376  20.1650936   20.2492376   20.24925831  20.31210115
  20.40490252  20.46258873  27.48453105  27.48457718  27.76775434
  31.56189557  34.40297765  34.40301103  34.69235046  44.35981013
  44.40733977  44.40739819  44.57828114  44.65054286  78.25489036
 139.3878532  139.38788743 139.61180307 152.95238464]
  25 ( 0.667  0.667  0.333)   [-4.83602421e+01 -2.01807457e+01 -3.14763446e+00 -1.65489645e+00
 -1.65338195e+00 -1.64744521e+00 -8.54676467e-01 -6.15053960e-02
 -2.57466561e-02  8.38891630e-02] [  0.83263336   0.9144908    0.91912684   1.19020407   1.22303546
   1.4024738    1.59673896   1.6097203    1.63976747   1.84231125
   1.89680123   2.02521991   2.05944886   2.20169311   2.312326
   2.39468858   2.41079396   2.42059629   2.47194079   2.51496009
   2.70798325   2.7842446    2.79088064   2.84781932   2.964693
   3.0254942    3.24232731   3.25540618   3.33713282   3.36536563
   3.66459931   3.87843012   4.65479698   4.85641732   5.44183206
   5.45930542   5.48066675   5.72763983   5.76199218   5.89845947
   6.06781781   6.22012378   6.29917545   6.31928749   6.37118564
   6.52812831   6.55425494   6.6224918    6.71458849   6.85728793
   7.38516403   7.56920924   7.64167598   7.69119163   7.82192372
   8.11377029   8.5814135    8.96011146   9.25162373  16.39877133
  16.41733452  16.41815905  16.46196989  16.47363605  16.49145878
  16.49778691  18.13896057  20.03190083  20.09966103  20.13365483
  20.29541874  20.41991306  27.36821194  27.41774258  27.85703514
  31.10352155  34.39364679  34.57652948  34.6567413   44.32833118
  44.37610851  44.38380633  44.72803226  44.75506843  78.25217371
 139.30325938 139.34005102 139.65118252 152.86821815]
  26 ( 0.667  0.667  0.667)   [-48.36027647 -20.18185106  -3.1549599   -1.6656578   -1.64623705
  -1.64621096  -1.05296093  -0.14314639   0.10807593   0.10887051] [  0.61380922   0.91065111   1.13816532   1.13817465   1.31578695
   1.31594601   1.34407705   1.63938713   1.69423482   1.69435262
   1.86800972   1.86808816   1.87975699   2.23342914   2.23345915
   2.31093441   2.62540571   2.66688481   2.66692255   2.73942386
   2.79098603   2.79099195   2.84994632   2.95632788   3.20344969
   3.20348048   3.20997005   3.23425768   3.23428481   3.76990915
   3.76991229   4.27727546   4.59320405   4.59320953   5.28389502
   5.65976005   5.65977363   5.84175317   5.84177261   5.85425228
   6.06688417   6.0938805    6.24960101   6.24960319   6.42093756
   6.69477775   6.69479508   6.93676918   6.94317089   6.9432031
   7.30974934   7.45130506   7.45131498   7.74899212   7.78064165
   7.78065364   8.73568102   8.73568358   8.75133379  16.40832504
  16.46263921  16.46357018  16.4635907   16.51972226  16.51972479
  16.58268533  17.04291617  20.20446946  20.24942951  20.24943839
  20.50711919  20.50712759  27.29969952  27.29972848  27.85817626
  30.67124317  34.45053972  34.4505614   34.51370215  44.39675179
  44.40621089  44.40624879  44.58835835  44.5884354   78.25215788
 139.24684318 139.2468658  139.65191796 152.24174415]
    CPU time for get_k_kpts: make_kpt ki>=kj (0,*)      2.31 sec, wall time      0.08 sec
    CPU time for get_k_kpts: make_kpt ki>=kj (1,*)      9.85 sec, wall time      0.31 sec
    CPU time for get_k_kpts: make_kpt ki>=kj (2,*)     14.71 sec, wall time      0.47 sec
    CPU time for get_k_kpts: make_kpt ki>=kj (3,*)     21.54 sec, wall time      1.35 sec
    CPU time for get_k_kpts: make_kpt ki>=kj (4,*)     21.79 sec, wall time      0.69 sec
    CPU time for get_k_kpts: make_kpt ki>=kj (5,*)     22.90 sec, wall time      0.72 sec
    CPU time for get_k_kpts: make_kpt ki>=kj (6,*)     25.28 sec, wall time      0.79 sec
    CPU time for get_k_kpts: make_kpt ki>=kj (7,*)     29.86 sec, wall time      0.94 sec
    CPU time for get_k_kpts: make_kpt ki>=kj (8,*)     33.66 sec, wall time      1.06 sec
    CPU time for get_k_kpts: make_kpt ki>=kj (9,*)     35.90 sec, wall time      1.13 sec
    CPU time for get_k_kpts: make_kpt ki>=kj (10,*)     41.18 sec, wall time      1.30 sec
    CPU time for get_k_kpts: make_kpt ki>=kj (11,*)     43.24 sec, wall time      1.36 sec
    CPU time for get_k_kpts: make_kpt ki>=kj (12,*)     46.54 sec, wall time      1.46 sec
    CPU time for get_k_kpts: make_kpt ki>=kj (13,*)     51.35 sec, wall time      1.62 sec
    CPU time for get_k_kpts: make_kpt ki>=kj (14,*)     55.35 sec, wall time      1.74 sec
    CPU time for get_k_kpts: make_kpt ki>=kj (15,*)     57.13 sec, wall time      1.80 sec
    CPU time for get_k_kpts: make_kpt ki>=kj (16,*)     60.50 sec, wall time      1.91 sec
    CPU time for get_k_kpts: make_kpt ki>=kj (17,*)     61.64 sec, wall time      1.94 sec
    CPU time for get_k_kpts: make_kpt ki>=kj (18,*)     66.01 sec, wall time      2.07 sec
    CPU time for get_k_kpts: make_kpt ki>=kj (19,*)     69.87 sec, wall time      2.20 sec
    CPU time for get_k_kpts: make_kpt ki>=kj (20,*)     73.34 sec, wall time      2.31 sec
    CPU time for get_k_kpts: make_kpt ki>=kj (21,*)     77.54 sec, wall time      2.44 sec
    CPU time for get_k_kpts: make_kpt ki>=kj (22,*)     80.21 sec, wall time      2.52 sec
    CPU time for get_k_kpts: make_kpt ki>=kj (23,*)     83.21 sec, wall time      2.62 sec
    CPU time for get_k_kpts: make_kpt ki>=kj (24,*)     91.06 sec, wall time      2.88 sec
    CPU time for get_k_kpts: make_kpt ki>=kj (25,*)     90.39 sec, wall time      2.84 sec
    CPU time for get_k_kpts: make_kpt ki>=kj (26,*)     92.72 sec, wall time      2.92 sec
Monkhorst pack size [3 3 3] ew_eta 1.7617206716074303 ew_cut 3.993056330944369
Ewald components = 0, -0.994093035724495, 0.898112154971916
    CPU time for get_j pass 1     47.25 sec, wall time      1.51 sec
    CPU time for get_j pass 2      7.08 sec, wall time      1.09 sec
    CPU time for vj and vk   1419.18 sec, wall time     46.28 sec
Ewald components = 9.1775830151223e-178, -596.417259326552, 523.385019500803
E1 = (-248.75304999087794-1.0042389449725804e-12j)  E_coul = (47.1345382346975+1.0879122590542047e-12j)
cycle= 1 E= -274.650751581929  delta_E= 1.06  |g|= 2.44  |ddm|= 2.04e+03
    CPU time for cycle= 1   1423.60 sec, wall time     48.15 sec
diis-norm(errvec)=9.65402
diis-c [-93.20008749+0.j   1.        +0.j]
HOMO = 0.141557920435  LUMO = 0.65716056909
     k-point                  mo_energy
   0 ( 0.000  0.000  0.000)   [-48.51520193 -19.76790765  -3.22820825  -1.74825549  -1.74823796
  -1.74823794  -0.69749043   0.14148311   0.14148314   0.14155792] [  0.65716057   1.09379393   1.09380873   1.09380933   1.23191963
   1.3318594    1.33187011   1.46011769   1.46016954   1.4601699
   2.00985027   2.08528611   2.08529571   2.08529726   2.45994515
   2.45994906   2.459988     2.64699953   2.64701548   2.70328792
   2.70330374   2.70330937   3.02936446   3.21880674   3.21884727
   3.49908186   3.49908493   3.49912549   3.51489279   3.5149156
   3.5149235    5.59707663   5.59712809   5.59712871   5.92543271
   5.96593085   5.96593402   5.96594734   6.00980754   6.00983921
   6.28607189   6.30437157   6.30438351   6.30438364   6.50305075
   6.50305365   6.50305531   7.12236165   7.12237203   7.12237546
   8.06450964   8.19523018   8.19523086   8.1952562    8.3850639
   8.38509077   9.37209813   9.37211978   9.37212921  16.27511355
  16.34881995  16.34882     16.34882005  16.5729606   16.57297016
  16.57297057  17.46966821  20.11493367  20.11493403  20.11493908
  20.25336351  20.25337192  27.81297524  27.81298403  27.81298406
  30.7831436   34.4146456   34.41464971  34.41464999  44.86169921
  44.86169926  44.86170295  44.88434476  44.88434944  78.13940873
 139.75887127 139.75887379 139.7588738  152.03259731]
   1 (-0.000 -0.000  0.333)   [-4.85152015e+01 -1.97679495e+01 -3.22816315e+00 -1.75048024e+00
 -1.74841584e+00 -1.74840404e+00 -6.63630252e-01 -3.50739909e-02
  1.16014350e-01  1.16014942e-01] [  0.78460161   0.9995455    1.13168885   1.13170098   1.31675341
   1.31678633   1.33173864   1.64248683   1.711846     1.71188164
   1.87185091   1.87187147   1.895945     2.25576175   2.25578558
   2.27663292   2.62862956   2.64267014   2.64268353   2.71093342
   2.8251877    2.835184     2.83519962   3.03537356   3.22010382
   3.22012211   3.2761357    3.27616237   3.29517217   3.81426831
   3.81428504   4.32988813   4.60799824   4.60800985   5.27460164
   5.73493788   5.7349477    5.85152146   5.90166962   5.9016771
   6.25052504   6.25529006   6.33204204   6.33204331   6.57339097
   6.76043375   6.7604427    7.01145258   7.01148059   7.02788366
   7.37825264   7.4975015    7.49751399   7.98486058   8.02323946
   8.02325385   8.8334138    8.88064066   8.8806658   16.30146638
  16.35623992  16.35727259  16.35727772  16.41454394  16.41454464
  16.47851389  16.958807    20.09127922  20.13655589  20.13655829
  20.39461002  20.39461237  27.67871655  27.67872232  28.23434696
  31.03069739  34.31983271  34.31983561  34.38883499  44.7973256
  44.80679941  44.8068018   44.98827791  44.98828263  78.10983585
 139.65585655 139.65585822 140.06060922 152.63990765]
   2 (-0.000 -0.000  0.667)   [-4.85152019e+01 -1.97679495e+01 -3.22816321e+00 -1.75048031e+00
 -1.74841593e+00 -1.74840409e+00 -6.63630256e-01 -3.50739938e-02
  1.16014347e-01  1.16014937e-01] [  0.78460161   0.99954549   1.13168884   1.13170097   1.31675338
   1.31678634   1.33173863   1.64248681   1.71184596   1.71188164
   1.87185093   1.87187146   1.895945     2.25576181   2.25578564
   2.27663294   2.62862981   2.64267012   2.64268356   2.71093375
   2.82518763   2.835184     2.83519963   3.0353735    3.22010377
   3.22012211   3.27613574   3.27616234   3.29517279   3.81426841
   3.81428548   4.32988959   4.60799889   4.60801442   5.27460167
   5.734938     5.73494839   5.85152157   5.90166964   5.90167711
   6.25052509   6.2552901    6.33204277   6.33204495   6.57339164
   6.76043376   6.76044395   7.01145278   7.01148145   7.02788387
   7.37825273   7.49750161   7.49751506   7.98486054   8.02323954
   8.02325386   8.83341395   8.88064057   8.88066675  16.30146633
  16.35623991  16.35727256  16.35727766  16.41454389  16.41454461
  16.47851391  16.95880712  20.09127921  20.13655589  20.13655828
  20.39461008  20.39461269  27.67871654  27.67872236  28.23434703
  31.03069742  34.31983272  34.3198357   34.38883499  44.7973256
  44.8067994   44.8068018   44.98827791  44.98828264  78.10983585
 139.65585655 139.65585822 140.06060923 152.63990766]
   3 ( 0.000  0.333 -0.000)   [-4.85152014e+01 -1.97679495e+01 -3.22816313e+00 -1.75048022e+00
 -1.74841582e+00 -1.74840403e+00 -6.63630251e-01 -3.50739885e-02
  1.16014350e-01  1.16014941e-01] [  0.78460162   0.9995455    1.13168885   1.13170098   1.31675341
   1.31678634   1.33173864   1.64248684   1.71184601   1.71188164
   1.87185091   1.87187146   1.89594503   2.25576173   2.25578557
   2.27663293   2.62862976   2.64267013   2.64268353   2.71093359
   2.82518771   2.83518401   2.8351996    3.03537356   3.22010382
   3.22012209   3.27613569   3.27616238   3.29517245   3.81426827
[...]
  16.34211786  16.3433625   16.38756164  16.39948448  16.41724911
  16.42402975  18.08422209  19.95608596  20.02393393  20.05876772
  20.22093705  20.34623694  27.5583705   27.6077646   28.0459948
  31.28570934  34.31023521  34.49340163  34.57815229  44.52745107
  44.57515044  44.58285706  44.92664099  44.95366454  78.16322718
 139.4891773  139.52595155 139.83699709 153.0474258 ]
  15 ( 0.333  0.667 -0.000)   [-4.84578288e+01 -1.99825538e+01 -3.19614507e+00 -1.71979749e+00
 -1.71962722e+00 -1.71833300e+00 -7.01472729e-01 -5.67624882e-02
 -5.16111333e-02  3.55234169e-02] [  0.8844564    0.97819405   0.99461646   1.20358516   1.23728192
   1.3926428    1.58624174   1.6284979    1.66153799   1.8373181
   1.9016943    2.01321785   2.0597719    2.18913925   2.30709394
   2.3942305    2.40457163   2.42707766   2.46446783   2.5122757
   2.68592142   2.80191619   2.81918113   2.86991273   3.00295263
   3.07032266   3.25290976   3.26135685   3.35684118   3.37504318
   3.66517629   3.91743371   4.70911348   4.88617696   5.45690878
   5.48624946   5.5582279    5.68833235   5.82656158   5.89298846
   6.09328107   6.33149395   6.40531723   6.41250356   6.43227954
   6.63533046   6.65190471   6.71829566   6.72016822   6.90056617
   7.47857782   7.60315229   7.65003634   7.83999513   7.91561376
   8.14424014   8.64607261   9.08932177   9.36607035  16.32444026
  16.34211778  16.34336248  16.38756161  16.39948439  16.4172491
  16.42402968  18.08469106  19.95608614  20.02393357  20.05877496
  20.22093816  20.34623714  27.55837049  27.60776468  28.04599498
  31.285761    34.31023519  34.49340137  34.57816046  44.52745107
  44.57515038  44.58285726  44.92664669  44.95366456  78.16322992
 139.4891773  139.52595155 139.83699714 153.04744049]
  16 ( 0.333  0.667  0.333)   [-4.84578285e+01 -1.99825538e+01 -3.19614500e+00 -1.71979747e+00
 -1.71962713e+00 -1.71833290e+00 -7.01472734e-01 -5.67625383e-02
 -5.16111464e-02  3.55234188e-02] [  0.88445631   0.97819416   0.99461638   1.20358521   1.23728291
   1.39264002   1.58624414   1.62849784   1.66153819   1.83731711
   1.90169011   2.01321331   2.05976862   2.18913825   2.30709533
   2.3942333    2.40456637   2.42707422   2.46445773   2.51228394
   2.68591953   2.80185476   2.81918033   2.86991568   3.0029516
   3.07031591   3.25291124   3.26121716   3.35684955   3.37505094
   3.66516589   3.91742223   4.70901133   4.88618038   5.45687134
   5.48625045   5.55822876   5.68833468   5.82655993   5.89298881
   6.09309205   6.33149367   6.40531738   6.41250181   6.43215889
   6.63532865   6.65190641   6.7182957    6.72016841   6.90049152
   7.47857829   7.60315388   7.65001548   7.83999689   7.91560838
   8.14423996   8.64603273   9.08932168   9.36574227  16.32443766
  16.34211785  16.3433625   16.38756162  16.39948447  16.41724912
  16.42402974  18.08423493  19.95608596  20.02393393  20.05876791
  20.22093708  20.34623696  27.55837049  27.6077646   28.04599479
  31.28571073  34.3102352   34.49340164  34.57815251  44.52745107
  44.57515044  44.58285706  44.92664114  44.95366455  78.16322724
 139.4891773  139.52595155 139.83699709 153.04742611]
  17 ( 0.333  0.667  0.667)   [-4.84578287e+01 -1.99825539e+01 -3.19614511e+00 -1.71979748e+00
 -1.71962729e+00 -1.71833295e+00 -7.01472732e-01 -5.67625330e-02
 -5.16111505e-02  3.55234222e-02] [  0.88445632   0.97819414   0.9946164    1.20358519   1.23728288
   1.39263992   1.58624405   1.62849781   1.66153836   1.83731707
   1.90169042   2.01321333   2.05976833   2.18913825   2.30709543
   2.39423349   2.40456633   2.4270736    2.46445928   2.51228352
   2.68591783   2.80187297   2.81918019   2.86991575   3.00295174
   3.07031693   3.25291184   3.26125133   3.35684912   3.37505182
   3.66516598   3.91742431   4.70904134   4.88617928   5.45688137
   5.48625043   5.55822869   5.6883345    5.82656026   5.8929885
   6.09314262   6.33149348   6.40531756   6.41250175   6.43218533
   6.63532837   6.65190657   6.71829546   6.72016831   6.90050707
   7.47857828   7.60315366   7.65002214   7.83999682   7.91561002
   8.1442398    8.64604117   9.08932115   9.36582985  16.32443831
  16.34211781  16.34336238  16.38756164  16.39948443  16.41724903
  16.42402966  18.08434507  19.95608606  20.02393387  20.05876966
  20.22093713  20.346237    27.55837048  27.60776456  28.04599481
  31.28572346  34.31023516  34.49340161  34.57815415  44.52745106
  44.57515043  44.5828571   44.92664258  44.95366453  78.16322778
 139.4891773  139.52595154 139.8369971  153.04742916]
  18 ( 0.667  0.000  0.000)   [-48.45782928 -19.98253674  -3.19631475  -1.72015176  -1.71794579
  -1.71794573  -0.72630791  -0.07433578   0.05845414   0.05845416] [  0.78230766   0.98393343   1.13262761   1.13262768   1.31602407
   1.31602532   1.34141421   1.64224468   1.70635441   1.7063562
   1.86781302   1.86781474   1.88843249   2.24634806   2.24635687
   2.28602627   2.62586369   2.64928538   2.64928706   2.71802711
   2.82024033   2.82024469   2.83254611   3.00854967   3.22262381
   3.2226397    3.25376317   3.25376621   3.26479497   3.79958724
   3.79959528   4.31057023   4.60052051   4.60052704   5.27901974
   5.71516698   5.71517096   5.85011393   5.86203343   5.86203369
   6.19392634   6.19833211   6.3099669    6.30996954   6.52108763
   6.73742379   6.73742597   6.98225824   6.98225912   6.99026082
   7.34997531   7.47890665   7.47890765   7.89309085   7.92906365
   7.9290643    8.79483619   8.81948323   8.81948436  16.33318653
  16.38797988  16.38900674  16.38900688  16.44600842  16.44600853
  16.50962868  16.98450263  20.12911288  20.17454663  20.1745468
  20.43247722  20.43247758  27.49024415  27.49024437  28.04715952
  30.85630926  34.36731443  34.36731458  34.43345109  44.59578771
  44.60527116  44.60527119  44.78714108  44.78714112  78.16321231
 139.43281314 139.43281316 139.83771645 152.42110518]
  19 ( 0.667  0.000  0.333)   [-4.84578288e+01 -1.99825537e+01 -3.19614508e+00 -1.71979752e+00
 -1.71962723e+00 -1.71833299e+00 -7.01472731e-01 -5.67624920e-02
 -5.16111365e-02  3.55234219e-02] [  0.8844564    0.97819404   0.99461646   1.20358516   1.23728192
   1.3926428    1.58624174   1.6284979    1.66153799   1.83731809
   1.9016943    2.01321786   2.05977186   2.18913925   2.30709393
   2.3942305    2.40457163   2.42707765   2.46446776   2.5122757
   2.68592125   2.80191455   2.81918119   2.86991266   3.00295261
   3.07032263   3.25290988   3.26135274   3.35684118   3.37504314
   3.66517635   3.9174335    4.70911101   4.88617867   5.45690791
   5.48624942   5.55822821   5.68833233   5.82656155   5.8929884
   6.09327631   6.33149394   6.40531719   6.41250393   6.4322759
   6.63533062   6.65190472   6.7182964    6.72016819   6.90056416
   7.4785778    7.60315272   7.65003585   7.83999513   7.91561362
   8.14424014   8.64607156   9.0893227    9.36606253  16.32444018
  16.34211778  16.34336246  16.38756159  16.39948438  16.4172491
  16.42402966  18.08467913  19.95608612  20.02393355  20.05877479
  20.22093814  20.34623722  27.55837049  27.60776469  28.04599497
  31.28575978  34.31023518  34.49340143  34.57816025  44.52745107
  44.57515038  44.58285726  44.92664657  44.95366459  78.16322984
 139.4891773  139.52595156 139.83699714 153.0474402 ]
  20 ( 0.667  0.000  0.667)   [-4.84578295e+01 -1.99825450e+01 -3.19622314e+00 -1.71976379e+00
 -1.71856786e+00 -1.71856779e+00 -7.17287050e-01 -6.55842987e-02
  3.32781989e-02  3.32782244e-02] [  0.85799808   0.85975799   1.04269812   1.22856763   1.22856802
   1.45832739   1.59143885   1.64391643   1.64392094   1.80030965
   1.90894971   1.90895032   1.93462589   1.97703283   2.28056675
   2.28057048   2.45693061   2.58762012   2.60938165   2.66511158
   2.66511508   2.99306267   2.99772623   3.05469919   3.08748748
   3.23988484   3.23989211   3.34866422   3.3486714    3.47019939
   3.8607392    3.86074203   4.08071747   4.73379198   5.74900269
   5.7490033    5.82894723   5.94633064   5.94633372   6.01230878
   6.13501115   6.18587989   6.23494887   6.43322724   6.43322756
   6.59368176   6.59368325   6.5937627    6.60497104   6.87126621
   7.77836812   7.77836911   7.79070187   7.95342949   8.04105238
   8.04105304   8.16748587   8.38666041   9.92795701  16.33156976
  16.36550995  16.40969621  16.40969624  16.41830576  16.4202059
  16.42020596  20.08919243  20.17361081  20.17361113  20.24340289
  20.33066671  20.4243807   27.67470878  27.674709    27.95584645
  31.73915203  34.3196351   34.3196353   34.61160811  44.55890326
  44.60640763  44.60640768  44.77707549  44.84913662  78.16593241
 139.57377075 139.57377078 139.79761957 153.13143767]
  21 ( 0.667  0.333  0.000)   [-4.84578287e+01 -1.99825537e+01 -3.19614506e+00 -1.71979750e+00
 -1.71962721e+00 -1.71833298e+00 -7.01472730e-01 -5.67624895e-02
 -5.16111346e-02  3.55234192e-02] [  0.8844564    0.97819404   0.99461646   1.20358517   1.23728192
   1.3926428    1.58624174   1.62849791   1.66153798   1.83731809
   1.9016943    2.01321785   2.05977189   2.18913925   2.30709395
   2.39423051   2.40457163   2.42707765   2.46446783   2.5122757
   2.68592145   2.80191611   2.81918115   2.86991271   3.00295262
   3.07032269   3.2529098    3.26135683   3.35684117   3.37504316
   3.66517624   3.91743371   4.70911327   4.88617735   5.45690883
   5.48624944   5.55822797   5.68833236   5.82656156   5.89298845
   6.09328119   6.33149395   6.4053172    6.41250363   6.43227942
   6.63533047   6.65190471   6.71829582   6.7201682    6.90056611
   7.47857781   7.6031524    7.65003634   7.83999513   7.91561375
   8.14424014   8.64607265   9.089322     9.36607022  16.32444025
  16.34211779  16.34336246  16.38756161  16.39948439  16.4172491
  16.42402967  18.08469128  19.95608612  20.02393355  20.05877497
  20.22093819  20.34623715  27.55837049  27.60776469  28.04599497
  31.28576099  34.31023519  34.49340138  34.57816046  44.52745107
  44.57515038  44.58285726  44.92664669  44.95366456  78.16322992
 139.4891773  139.52595156 139.83699714 153.04744051]
  22 ( 0.667  0.333  0.333)   [-4.84578285e+01 -1.99825537e+01 -3.19614499e+00 -1.71979745e+00
 -1.71962717e+00 -1.71833290e+00 -7.01472732e-01 -5.67625250e-02
 -5.16111575e-02  3.55234251e-02] [  0.88445631   0.97819414   0.99461643   1.20358521   1.2372829
   1.39263995   1.58624407   1.62849785   1.66153831   1.83731706
   1.90169034   2.01321333   2.05976838   2.18913826   2.30709552
   2.3942335    2.40456628   2.42707352   2.46445927   2.51228353
   2.68591786   2.80187307   2.81918024   2.86991582   3.0029517
   3.07031698   3.25291196   3.26125214   3.35684922   3.37505176
   3.66516566   3.91742429   4.7090426    4.88617906   5.45688154
   5.48625038   5.55822862   5.68833455   5.82656003   5.89298846
   6.0931441    6.33149358   6.4053175    6.41250159   6.43218651
   6.63532825   6.65190653   6.71829516   6.72016825   6.9005078
   7.47857825   7.60315371   7.65002255   7.83999685   7.91561003
   8.14423995   8.64604179   9.08932102   9.36583184  16.32443827
  16.34211786  16.34336246  16.3875616   16.39948448  16.41724912
  16.42402974  18.08434839  19.95608602  20.02393385  20.05876976
  20.22093723  20.34623695  27.55837049  27.60776459  28.04599481
  31.28572383  34.31023518  34.49340161  34.57815422  44.52745107
  44.57515043  44.5828571   44.92664264  44.95366452  78.16322781
 139.4891773  139.52595154 139.83699711 153.04742929]
  23 ( 0.667  0.333  0.667)   [-4.84578287e+01 -1.99825538e+01 -3.19614510e+00 -1.71979754e+00
 -1.71962722e+00 -1.71833297e+00 -7.01472735e-01 -5.67625476e-02
 -5.16111435e-02  3.55234140e-02] [  0.88445632   0.97819414   0.99461635   1.20358519   1.2372829
   1.39263999   1.58624413   1.6284978    1.66153826   1.83731713
   1.90169023   2.01321331   2.05976856   2.18913824   2.30709519
   2.39423327   2.40456641   2.42707428   2.46445775   2.51228392
   2.68591953   2.80185494   2.81918023   2.86991563   3.00295164
   3.07031586   3.25291103   3.26121699   3.35684947   3.37505088
   3.66516606   3.91742223   4.70901101   4.88618014   5.45687139
   5.48625046   5.5582288    5.68833465   5.82656019   5.89298883
   6.09309158   6.33149359   6.40531737   6.41250178   6.43215834
   6.63532858   6.65190639   6.71829575   6.72016846   6.90049136
   7.47857829   7.60315375   7.65001522   7.83999685   7.91560842
   8.14423979   8.64603243   9.0893216    9.36574228  16.32443769
  16.34211781  16.3433624   16.38756165  16.39948442  16.41724902
  16.42402967  18.08423425  19.95608603  20.02393393  20.05876781
  20.22093701  20.346237    27.55837046  27.60776457  28.0459948
  31.2857107   34.31023519  34.49340163  34.57815249  44.52745107
  44.57515043  44.58285707  44.92664113  44.95366455  78.16322723
 139.4891773  139.52595155 139.83699709 153.04742612]
  24 ( 0.667  0.667  0.000)   [-4.84578295e+01 -1.99825450e+01 -3.19622314e+00 -1.71976378e+00
 -1.71856786e+00 -1.71856779e+00 -7.17287049e-01 -6.55842988e-02
  3.32782006e-02  3.32782219e-02] [  0.85799808   0.85975799   1.04269812   1.22856763   1.22856802
   1.45832739   1.59143886   1.64391643   1.64392095   1.80030964
   1.90894972   1.90895031   1.9346259    1.97703282   2.28056675
   2.28057048   2.45693061   2.58762012   2.60938181   2.66511158
   2.66511508   2.99306267   2.99772622   3.05469924   3.08748773
   3.23988485   3.23989212   3.34866424   3.3486714    3.47020226
   3.86073923   3.86074202   4.08071739   4.73380644   5.74900272
   5.74900329   5.82894722   5.94633061   5.94633373   6.01230888
   6.13501113   6.18588013   6.23494886   6.43322724   6.43322756
   6.59368174   6.59368321   6.59376269   6.60497159   6.87127697
   7.77836812   7.77836912   7.79070187   7.95343143   8.04105239
   8.04105304   8.16749409   8.38666042   9.9279958   16.33156976
  16.36550994  16.40969622  16.40969625  16.41830582  16.4202059
  16.42020595  20.08919243  20.17361081  20.17361113  20.24340564
  20.3306667   20.42441608  27.67470879  27.67470899  27.95584706
  31.73916237  34.3196351   34.3196353   34.61160975  44.55890326
  44.60640763  44.60640768  44.77707549  44.84913728  78.16593242
 139.57377075 139.57377078 139.79761967 153.13143941]
  25 ( 0.667  0.667  0.333)   [-4.84578288e+01 -1.99825538e+01 -3.19614512e+00 -1.71979756e+00
 -1.71962724e+00 -1.71833298e+00 -7.01472736e-01 -5.67625516e-02
 -5.16111435e-02  3.55234159e-02] [  0.88445631   0.97819414   0.99461635   1.20358519   1.2372829
   1.39263999   1.58624414   1.6284978    1.66153826   1.83731714
   1.90169022   2.01321331   2.05976855   2.18913823   2.30709524
   2.39423329   2.40456641   2.42707429   2.46445765   2.51228397
   2.68591949   2.80185348   2.81918025   2.86991558   3.00295164
   3.07031576   3.25291102   3.26121391   3.35684946   3.3750512
   3.6651662    3.91742197   4.70900805   4.8861806    5.45687049
   5.48625047   5.55822886   5.68833467   5.82656019   5.89298882
   6.09308731   6.3314936    6.40531738   6.41250197   6.43215575
   6.6353287    6.65190645   6.71829598   6.72016837   6.90048973
   7.4785783    7.60315384   7.65001473   7.83999685   7.91560829
   8.14423979   8.64603154   9.08932188   9.3657339   16.32443763
  16.3421178   16.3433624   16.38756166  16.39948441  16.41724901
  16.42402967  18.08422445  19.95608602  20.02393393  20.05876764
  20.22093698  20.34623703  27.55837046  27.60776458  28.04599478
  31.28570953  34.31023519  34.49340164  34.57815229  44.52745107
  44.57515043  44.58285706  44.92664099  44.95366456  78.16322718
 139.4891773  139.52595155 139.83699709 153.04742582]
  26 ( 0.667  0.667  0.667)   [-48.45782925 -19.98253696  -3.19631482  -1.7201519   -1.71794574
  -1.71794573  -0.72630792  -0.07433576   0.05845418   0.05845419] [  0.78230724   0.9839325    1.13262708   1.13262708   1.31602313
   1.31602319   1.34141114   1.64224567   1.70635291   1.70635299
   1.86780997   1.86781006   1.88843542   2.24634706   2.24634718
   2.28602292   2.62584958   2.6492797    2.64927981   2.71802441
   2.82024693   2.82024709   2.83251608   3.00854827   3.22264332
   3.22264365   3.25376477   3.25376497   3.26479055   3.79959767
   3.79959825   4.31056426   4.60054189   4.60054858   5.27902009
   5.71517115   5.71517253   5.85011189   5.86203539   5.86203547
   6.19392451   6.19833273   6.3099746    6.30997725   6.52108412
   6.73742629   6.73742864   6.98225953   6.98226129   6.99026138
   7.34997351   7.47891189   7.47891351   7.89309052   7.92906388
   7.92906392   8.79483271   8.8194857    8.81948703  16.33318653
  16.3879798   16.38900678  16.38900684  16.44600866  16.44600871
  16.50962851  16.98450163  20.12911239  20.17454659  20.17454662
  20.43247812  20.43247857  27.49024435  27.4902444   28.04715936
  30.85630864  34.36731485  34.36731497  34.43345076  44.59578768
  44.60527115  44.60527116  44.78714112  44.78714114  78.16321228
 139.43281316 139.43281317 139.83771639 152.42110493]
    CPU time for get_k_kpts: make_kpt ki>=kj (0,*)      2.21 sec, wall time      0.08 sec
    CPU time for get_k_kpts: make_kpt ki>=kj (1,*)      8.87 sec, wall time      0.28 sec
    CPU time for get_k_kpts: make_kpt ki>=kj (2,*)     16.08 sec, wall time      0.52 sec
    CPU time for get_k_kpts: make_kpt ki>=kj (3,*)     16.50 sec, wall time      0.52 sec
    CPU time for get_k_kpts: make_kpt ki>=kj (4,*)     20.31 sec, wall time      0.64 sec
    CPU time for get_k_kpts: make_kpt ki>=kj (5,*)     22.73 sec, wall time      0.71 sec
    CPU time for get_k_kpts: make_kpt ki>=kj (6,*)     26.03 sec, wall time      0.82 sec
    CPU time for get_k_kpts: make_kpt ki>=kj (7,*)     30.24 sec, wall time      0.95 sec
    CPU time for get_k_kpts: make_kpt ki>=kj (8,*)     33.71 sec, wall time      1.06 sec
    CPU time for get_k_kpts: make_kpt ki>=kj (9,*)     37.75 sec, wall time      1.19 sec
    CPU time for get_k_kpts: make_kpt ki>=kj (10,*)     42.24 sec, wall time      1.33 sec
    CPU time for get_k_kpts: make_kpt ki>=kj (11,*)     43.87 sec, wall time      1.38 sec
    CPU time for get_k_kpts: make_kpt ki>=kj (12,*)     47.53 sec, wall time      1.49 sec
    CPU time for get_k_kpts: make_kpt ki>=kj (13,*)     50.62 sec, wall time      1.61 sec
    CPU time for get_k_kpts: make_kpt ki>=kj (14,*)     55.21 sec, wall time      1.74 sec
    CPU time for get_k_kpts: make_kpt ki>=kj (15,*)     57.84 sec, wall time      1.82 sec
    CPU time for get_k_kpts: make_kpt ki>=kj (16,*)     59.93 sec, wall time      1.88 sec
    CPU time for get_k_kpts: make_kpt ki>=kj (17,*)     67.28 sec, wall time      2.11 sec
    CPU time for get_k_kpts: make_kpt ki>=kj (18,*)     68.59 sec, wall time      2.16 sec
    CPU time for get_k_kpts: make_kpt ki>=kj (19,*)     71.23 sec, wall time      2.24 sec
    CPU time for get_k_kpts: make_kpt ki>=kj (20,*)     72.62 sec, wall time      2.29 sec
    CPU time for get_k_kpts: make_kpt ki>=kj (21,*)     78.51 sec, wall time      2.46 sec
    CPU time for get_k_kpts: make_kpt ki>=kj (22,*)     84.00 sec, wall time      2.64 sec
    CPU time for get_k_kpts: make_kpt ki>=kj (23,*)     87.66 sec, wall time      2.75 sec
    CPU time for get_k_kpts: make_kpt ki>=kj (24,*)     84.32 sec, wall time      2.65 sec
    CPU time for get_k_kpts: make_kpt ki>=kj (25,*)     86.16 sec, wall time      2.71 sec
    CPU time for get_k_kpts: make_kpt ki>=kj (26,*)     89.40 sec, wall time      2.82 sec
Monkhorst pack size [3 3 3] ew_eta 1.7617206716074303 ew_cut 3.993056330944369
Ewald components = 0, -0.994093035724495, 0.898112154971916
    CPU time for get_j pass 1     39.96 sec, wall time      1.30 sec
    CPU time for get_j pass 2      6.57 sec, wall time      0.86 sec
    CPU time for vj and vk   1415.51 sec, wall time     45.25 sec
Ewald components = 9.1775830151223e-178, -596.417259326552, 523.385019500803
E1 = (-248.30447655321194-1.5071745735309395e-12j)  E_coul = (46.63349751779962+2.0474081612639262e-12j)
Extra cycle  E= -274.703218861161  delta_E= -8.83e-11  |g|= 3.55e-05  |ddm|= 0.00433
    CPU time for scf_cycle 276791.21 sec, wall time   9366.68 sec
    CPU time for SCF 276791.25 sec, wall time   9366.72 sec
converged SCF energy = -274.703218861161
