Discarded 1 diffused primitive functions, 0 contracted functions
#INFO: **** input file is /burg/ccce/users/eav2136/projects/core_level_spectroscopy/01_peommp2_cbe/meanfield.py ****
#!/usr/bin/env python
import json
from pyscf.pbc import gto, scf
from pyscf.pbc.tools import lattice, pyscf_ase
from pyscf.pbc.scf import chkfile
from fileutils import load, dump
import sys

material = load("data/{}".format(sys.argv[1]))
# Create Cell
cell = gto.Cell()
ase_atom = lattice.get_ase_atom(material["formula"])
cell.atom = pyscf_ase.ase_atoms_to_pyscf(ase_atom)
cell.a = ase_atom.cell[:]
cell.unit = "B"
cell.basis = material["basis"]
cell.exp_to_discard = material["exp_to_discard"]
cell.verbose = 7
cell.build()

# Mean Field
kdensity = material["kdensity"]
kmesh = [kdensity, kdensity, kdensity]
kpts = cell.make_kpts(kmesh, scaled_center=material["vb_scaled_center"])
mymf = scf.KRHF(cell, kpts=kpts, exxdiv="ewald")
mymf.chkfile = "data/{}".format(material["chk"])
mymf = mymf.density_fit()
mymf.with_df._cderi_to_save = "data/{}".format(material["cderi"])
ekrhf = mymf.kernel()
convergence = mymf.converged
mymf_data = dict([("ekrhf", float(ekrhf)),
                  ("convergence", bool(convergence))])
dump(mymf_data, "data/{}".format(material["ekrhf"]))
#INFO: ******************** input file end ********************


System: uname_result(system='Linux', node='g147', release='4.18.0-193.el8.x86_64', version='#1 SMP Fri Mar 27 14:35:58 UTC 2020', machine='x86_64')  Threads 32
Python 3.10.12 (main, Jul 29 2023, 11:27:27) [GCC 13.2.0]
numpy 1.25.1  scipy 1.10.1
Date: Thu Jan 25 14:21:05 2024
PySCF version 2.0.1
PySCF path  /burg/berkelbach/users/eav2136/builds/pyscf/projected-cvs/pyscf
GIT ORIG_HEAD 0bfbc692adf3ea63b8a509210433219cd1c472a2
GIT HEAD (branch projected-cvs) e14caaa2dddc538b9be2d86f01e5b456fc92da36

[ENV] PYSCF_TMPDIR /burg/ccce/users/eav2136/projects/core_level_spectroscopy/01_peommp2_cbe/tmp
[ENV] PYSCF_MAX_MEMORY 700000
[CONFIG] DEBUG = False
[CONFIG] MAX_MEMORY = 700000
[CONFIG] TMPDIR = /burg/ccce/users/eav2136/projects/core_level_spectroscopy/01_peommp2_cbe/tmp
[CONFIG] UNIT = angstrom
[CONFIG] VERBOSE = 3
[CONFIG] conf_file = None
[INPUT] verbose = 7
[INPUT] max_memory = 700000 
[INPUT] num. atoms = 2
[INPUT] num. electrons = 20
[INPUT] charge = 0
[INPUT] spin (= nelec alpha-beta = 2S) = 0
[INPUT] symmetry False subgroup None
[INPUT] Mole.unit = B
[INPUT]  1 Mg     0.000000000000   0.000000000000   0.000000000000 AA    0.000000000000   0.000000000000   0.000000000000 Bohr
[INPUT]  2 O      2.106499848884   0.000000000000   0.000000000000 AA    3.980707795829   0.000000000000   0.000000000000 Bohr
[INPUT] ---------------- BASIS SET ---------------- 
[INPUT] l, kappa, [nprim/nctr], expnt,             c_1 c_2 ...
[INPUT] Mg
[INPUT] 0    0    [13   /3   ]  164900            7.29929e-05 -1.84248e-05 3.55176e-06
                                24710             0.000566652 -0.0001435 2.7642e-05
                                5628              0.00296269 -0.00074871 0.000144404
                                1596              0.0122962 -0.00314407 0.000605744
                                521               0.0427324 -0.0110481 0.00213527
                                188               0.123013 -0.0336058 0.00649934
                                73.01             0.274832 -0.0825946 0.0161446
                                29.9              0.401818 -0.159314 0.0315766
                                12.54             0.264697 -0.152888 0.0316374
                                4.306             0.0332612 0.190849 -0.043914
                                1.826             -0.00441335 0.579964 -0.151093
                                0.7417            0.00206024 0.372029 -0.217668
                                0.07612           0.000708195 -0.0119344 0.547245
[INPUT] 0    0    [1    /1   ]  0.1457               1
[INPUT] 0    0    [1    /1   ]  0.0331               1
[INPUT] 1    0    [8    /2   ]  316.9             0.00207532 -0.000329727
                                74.86             0.0162869 -0.00258754
                                23.72             0.0738697 -0.011912
                                8.669             0.214297 -0.0350227
                                3.363             0.382154 -0.0639968
                                1.31              0.398178 -0.0704436
                                0.4911            0.152878 -0.0375836
                                0.2364            -0.0043754 0.177043
[INPUT] 1    0    [1    /1   ]  0.08733              1
[INPUT] 2    0    [1    /1   ]  0.126                1
[INPUT] 2    0    [1    /1   ]  0.294                1
[INPUT] 3    0    [1    /1   ]  0.252                1
[INPUT] 0    0    [1    /1   ]  17.516               1
[INPUT] 0    0    [1    /1   ]  3.87                 1
[INPUT] 1    0    [1    /1   ]  20.297               1
[INPUT] 1    0    [1    /1   ]  5.105                1
[INPUT] 2    0    [1    /1   ]  7.029                1
[INPUT] 2    0    [1    /1   ]  2.121                1
[INPUT] 3    0    [1    /1   ]  4.53                 1
[INPUT] O
[INPUT] 0    0    [8    /2   ]  15330             0.000508 -0.000115
                                2299              0.003929 -0.000895
                                522.4             0.020243 -0.004636
                                147.3             0.079181 -0.018724
                                47.55             0.230687 -0.058463
                                16.76             0.433118 -0.136463
                                6.207             0.35026 -0.17574
                                0.6882            -0.008154 0.603418
[INPUT] 0    0    [1    /1   ]  1.752                1
[INPUT] 0    0    [1    /1   ]  0.2384               1
[INPUT] 1    0    [3    /1   ]  34.46             0.015928
                                7.749             0.09974
                                2.28              0.310492
[INPUT] 1    0    [1    /1   ]  0.7156               1
[INPUT] 1    0    [1    /1   ]  0.214                1
[INPUT] 2    0    [1    /1   ]  2.314                1
[INPUT] 2    0    [1    /1   ]  0.645                1
[INPUT] 3    0    [1    /1   ]  1.428                1
[INPUT] 0    0    [1    /1   ]  7.845                1
[INPUT] 0    0    [1    /1   ]  21.032               1
[INPUT] 1    0    [1    /1   ]  15.159               1
[INPUT] 1    0    [1    /1   ]  57.437               1
[INPUT] 2    0    [1    /1   ]  15.858               1

Ewald components = 9.1775830151223e-178, -596.417259326552, 523.385019500803
nuclear repulsion = -73.0322398257483
number of shells = 29
number of NR pGTOs = 139
number of NR cGTOs = 99
basis = ccpcvtz
ecp = {}
bas 0, expnt(s) = [1.649e+05 2.471e+04 5.628e+03 1.596e+03 5.210e+02 1.880e+02 7.301e+01
 2.990e+01 1.254e+01 4.306e+00 1.826e+00 7.417e-01 7.612e-02]
bas 1, expnt(s) = [0.1457]
bas 2, expnt(s) = [0.0331]
bas 3, expnt(s) = [3.169e+02 7.486e+01 2.372e+01 8.669e+00 3.363e+00 1.310e+00 4.911e-01
 2.364e-01]
bas 4, expnt(s) = [0.08733]
bas 5, expnt(s) = [0.126]
bas 6, expnt(s) = [0.294]
bas 7, expnt(s) = [0.252]
bas 8, expnt(s) = [17.516]
bas 9, expnt(s) = [3.87]
bas 10, expnt(s) = [20.297]
bas 11, expnt(s) = [5.105]
bas 12, expnt(s) = [7.029]
bas 13, expnt(s) = [2.121]
bas 14, expnt(s) = [4.53]
bas 15, expnt(s) = [1.533e+04 2.299e+03 5.224e+02 1.473e+02 4.755e+01 1.676e+01 6.207e+00
 6.882e-01]
bas 16, expnt(s) = [1.752]
bas 17, expnt(s) = [0.2384]
bas 18, expnt(s) = [34.46   7.749  2.28 ]
bas 19, expnt(s) = [0.7156]
bas 20, expnt(s) = [0.214]
bas 21, expnt(s) = [2.314]
bas 22, expnt(s) = [0.645]
bas 23, expnt(s) = [1.428]
bas 24, expnt(s) = [7.845]
bas 25, expnt(s) = [21.032]
bas 26, expnt(s) = [15.159]
bas 27, expnt(s) = [57.437]
bas 28, expnt(s) = [15.858]
CPU time:         0.91
lattice vectors  a1 [0.000000000, 3.980707796, 3.980707796]
                 a2 [3.980707796, 0.000000000, 3.980707796]
                 a3 [3.980707796, 3.980707796, 0.000000000]
dimension = 3
low_dim_ft_type = None
Cell volume = 126.157
exp_to_discard = 0.033
rcut = 38.526599018932664 (nimgs = [9 9 9])
lattice sum = 3584 cells
precision = 1e-08
pseudo = None
ke_cutoff = 357949.93847749155
    = [1238 1238 1238] mesh (1897413272 PWs)


******** <class 'pyscf.pbc.scf.khf.KRHF'> ********
method = KRHF-KSCF-RHF-SCF-RHF
initial guess = minao
damping factor = 0
level_shift factor = 0
DIIS = <class 'pyscf.scf.diis.CDIIS'>
diis_start_cycle = 1
diis_space = 8
SCF conv_tol = 1e-07
SCF conv_tol_grad = None
SCF max_cycles = 50
direct_scf = True
direct_scf_tol = 1e-13
chkfile to save SCF result = data/mgo_ccpcvtz_k2_O_1s_nvir_act63.chk
max_memory 700000 MB (current use 109 MB)


******** PBC SCF flags ********
N kpts = 8
kpts = [[ 0.          0.          0.        ]
 [ 0.39460227  0.39460227 -0.39460227]
 [ 0.39460227 -0.39460227  0.39460227]
 [ 0.78920454  0.          0.        ]
 [-0.39460227  0.39460227  0.39460227]
 [ 0.          0.78920454  0.        ]
 [ 0.          0.          0.78920454]
 [ 0.39460227  0.39460227  0.39460227]]
Exchange divergence treatment (exxdiv) = ewald
Monkhorst pack size [2 2 2] ew_eta 2.6034247657824383 ew_cut 2.7035853562553935
Ewald components = 0, -1.46905476456693, 1.32508344356495
    madelung (= occupied orbital energy shift) = 0.28794264200397235
    Total energy shift due to Ewald probe charge = -1/2 * Nelec*madelung = -2.87942642004
DF object = <pyscf.pbc.df.df.GDF object at 0x155553f43fd0>
Set gradient conv threshold to 0.000316228
Big error detected in the electron number of initial guess density matrix (Ne/cell = 20.6667)!
  This can cause huge error in Fock matrix and lead to instability in SCF for low-dimensional systems.
  DM is normalized wrt the number of electrons 20.0
    CPU time for vnuc pass1: analytic int   3126.03 sec, wall time    100.64 sec
    CPU time for contracting Vnuc [0:343]     58.95 sec, wall time      1.86 sec
    CPU time for contracting Vnuc     58.96 sec, wall time      1.86 sec
    CPU time for get_nuc   3185.05 sec, wall time    102.50 sec


******** <class 'pyscf.pbc.df.df.GDF'> ********
mesh = [7, 7, 7] (343 PWs)
auxbasis = None
eta = 0.2
exp_to_discard = 0.033
_cderi_to_save = data/mgo_ccpcvtz_k2_O_1s_nvir_act63_cderi.h5
len(kpts) = 8
    kpts = [[ 0.          0.          0.        ]
 [ 0.39460227  0.39460227 -0.39460227]
 [ 0.39460227 -0.39460227  0.39460227]
 [ 0.78920454  0.          0.        ]
 [-0.39460227  0.39460227  0.39460227]
 [ 0.          0.78920454  0.        ]
 [ 0.          0.          0.78920454]
 [ 0.39460227  0.39460227  0.39460227]]
Even tempered Gaussians are generated as DF auxbasis for  Mg O
  ETB auxbasis for Mg  [[0, [8676.9664, 1]], [0, [4338.4832, 1]], [0, [2169.2416, 1]], [0, [1084.6208, 1]], [0, [542.3104, 1]], [0, [271.1552, 1]], [0, [135.5776, 1]], [0, [67.7888, 1]], [0, [33.8944, 1]], [0, [16.9472, 1]], [0, [8.4736, 1]], [0, [4.2368, 1]], [0, [2.1184, 1]], [0, [1.0592, 1]], [0, [0.5296, 1]], [0, [0.2648, 1]], [0, [0.1324, 1]], [0, [0.0662, 1]], [1, [1761.7556052178043, 1]], [1, [880.8778026089021, 1]], [1, [440.43890130445106, 1]], [1, [220.21945065222553, 1]], [1, [110.10972532611277, 1]], [1, [55.05486266305638, 1]], [1, [27.52743133152819, 1]], [1, [13.763715665764096, 1]], [1, [6.881857832882048, 1]], [1, [3.440928916441024, 1]], [1, [1.720464458220512, 1]], [1, [0.860232229110256, 1]], [1, [0.430116114555128, 1]], [1, [0.215058057277564, 1]], [1, [0.107529028638782, 1]], [2, [529.0408568328158, 1]], [2, [264.5204284164079, 1]], [2, [132.26021420820396, 1]], [2, [66.13010710410198, 1]], [2, [33.06505355205099, 1]], [2, [16.532526776025495, 1]], [2, [8.266263388012748, 1]], [2, [4.133131694006374, 1]], [2, [2.066565847003187, 1]], [2, [1.0332829235015935, 1]], [2, [0.5166414617507967, 1]], [2, [0.25832073087539836, 1]], [2, [0.12916036543769918, 1]], [3, [53.70775060938598, 1]], [3, [26.85387530469299, 1]], [3, [13.426937652346496, 1]], [3, [6.713468826173248, 1]], [3, [3.356734413086624, 1]], [3, [1.678367206543312, 1]], [3, [0.839183603271656, 1]], [3, [0.419591801635828, 1]], [3, [0.209795900817914, 1]], [4, [8.064, 1]], [4, [4.032, 1]], [4, [2.016, 1]], [4, [1.008, 1]], [4, [0.504, 1]], [4, [0.252, 1]]]
  ETB auxbasis for O  [[0, [3905.9456, 1]], [0, [1952.9728, 1]], [0, [976.4864, 1]], [0, [488.2432, 1]], [0, [244.1216, 1]], [0, [122.0608, 1]], [0, [61.0304, 1]], [0, [30.5152, 1]], [0, [15.2576, 1]], [0, [7.6288, 1]], [0, [3.8144, 1]], [0, [1.9072, 1]], [0, [0.9536, 1]], [0, [0.4768, 1]], [1, [462.5833154691163, 1]], [1, [231.29165773455816, 1]], [1, [115.64582886727908, 1]], [1, [57.82291443363954, 1]], [1, [28.91145721681977, 1]], [1, [14.455728608409885, 1]], [1, [7.227864304204942, 1]], [1, [3.613932152102471, 1]], [1, [1.8069660760512356, 1]], [1, [0.9034830380256178, 1]], [1, [0.4517415190128089, 1]], [2, [219.136, 1]], [2, [109.568, 1]], [2, [54.784, 1]], [2, [27.392, 1]], [2, [13.696, 1]], [2, [6.848, 1]], [2, [3.424, 1]], [2, [1.712, 1]], [2, [0.856, 1]], [2, [0.428, 1]], [3, [47.555057775172564, 1]], [3, [23.777528887586282, 1]], [3, [11.888764443793141, 1]], [3, [5.9443822218965705, 1]], [3, [2.9721911109482853, 1]], [3, [1.4860955554741426, 1]], [3, [0.7430477777370713, 1]], [4, [20.64, 1]], [4, [10.32, 1]], [4, [5.16, 1]], [4, [2.58, 1]], [4, [1.29, 1]]]
num shells = 108, num cGTOs = 436
Drop 0 primitive fitting functions
make aux basis, num shells = 108, num cGTOs = 436
auxcell.rcut 21.33945144632412
make compensating basis, num shells = 10, num cGTOs = 50
chgcell.rcut 11.482117703874595
    CPU time for 3c2e 216921.76 sec, wall time   7256.76 sec
Num uniq kpts 14
uniq_kpts [[ 0.          0.          0.        ]
 [-0.39460227 -0.39460227  0.39460227]
 [-0.39460227  0.39460227 -0.39460227]
 [ 0.          0.78920454 -0.78920454]
 [-0.78920454  0.          0.        ]
 [ 0.39460227 -0.39460227 -0.39460227]
 [ 0.78920454  0.         -0.78920454]
 [ 0.78920454 -0.78920454  0.        ]
 [ 1.18380681 -0.39460227 -0.39460227]
 [ 0.         -0.78920454  0.        ]
 [ 0.39460227 -1.18380681  0.39460227]
 [ 0.          0.         -0.78920454]
 [ 0.39460227  0.39460227 -1.18380681]
 [-0.39460227 -0.39460227 -0.39460227]]
max_memory 699686.47168 (MB)  blocksize 35992102
Cholesky decomposition for j2c at kpt 0
Symmetry pattern (k - [0. 0. 0.])*a= 2n pi
    make_kpt for uniq_kptji_ids [0]
kpt = [0. 0. 0.]
adapted_ji_idx = [ 0  2  5  9 14 20 27 35]
memory = 295.473152
int3c2e [1/1], AO [0:29], ncol = 4950
Symmetry pattern (k + [0. 0. 0.])*a= 2n pi
    make_kpt for [0]
Cholesky decomposition for j2c at kpt 1
Symmetry pattern (k - [-0.39460227 -0.39460227  0.39460227])*a= 2n pi
    make_kpt for uniq_kptji_ids [1]
kpt = [-0.39460227 -0.39460227  0.39460227]
adapted_ji_idx = [ 1  8 19 34]
memory = 860.934144
int3c2e [1/1], AO [0:29], ncol = 9801
Symmetry pattern (k + [-0.39460227 -0.39460227  0.39460227])*a= 2n pi
    make_kpt for [1]
Cholesky decomposition for j2c at kpt 2
Symmetry pattern (k - [-0.39460227  0.39460227 -0.39460227])*a= 2n pi
    make_kpt for uniq_kptji_ids [2]
kpt = [-0.39460227  0.39460227 -0.39460227]
adapted_ji_idx = [ 3  7 25 33]
memory = 968.462336
int3c2e [1/1], AO [0:29], ncol = 9801
Symmetry pattern (k + [-0.39460227  0.39460227 -0.39460227])*a= 2n pi
    make_kpt for [2]
Cholesky decomposition for j2c at kpt 3
Symmetry pattern (k - [ 0.          0.78920454 -0.78920454])*a= 2n pi
    make_kpt for uniq_kptji_ids [3 4]
kpt = [ 0.          0.78920454 -0.78920454]
adapted_ji_idx = [ 4 26]
memory = 970.21952
int3c2e [1/1], AO [0:29], ncol = 9801
kpt = [-0.78920454  0.          0.        ]
adapted_ji_idx = [ 6 32]
memory = 997.158912
int3c2e [1/1], AO [0:29], ncol = 9801
Symmetry pattern (k + [ 0.          0.78920454 -0.78920454])*a= 2n pi
    make_kpt for [3 4]
Cholesky decomposition for j2c at kpt 5
Symmetry pattern (k - [ 0.39460227 -0.39460227 -0.39460227])*a= 2n pi
    make_kpt for uniq_kptji_ids [5]
kpt = [ 0.39460227 -0.39460227 -0.39460227]
adapted_ji_idx = [10 16 23 31]
memory = 1004.240896
int3c2e [1/1], AO [0:29], ncol = 9801
Symmetry pattern (k + [ 0.39460227 -0.39460227 -0.39460227])*a= 2n pi
    make_kpt for [5]
Cholesky decomposition for j2c at kpt 6
Symmetry pattern (k - [ 0.78920454  0.         -0.78920454])*a= 2n pi
    make_kpt for uniq_kptji_ids [6 9]
kpt = [ 0.78920454  0.         -0.78920454]
adapted_ji_idx = [11 24]
memory = 1006.829568
int3c2e [1/1], AO [0:29], ncol = 9801
kpt = [ 0.         -0.78920454  0.        ]
adapted_ji_idx = [15 30]
memory = 1006.751744
int3c2e [1/1], AO [0:29], ncol = 9801
Symmetry pattern (k + [ 0.78920454  0.         -0.78920454])*a= 2n pi
    make_kpt for [6 9]
Cholesky decomposition for j2c at kpt 7
Symmetry pattern (k - [ 0.78920454 -0.78920454  0.        ])*a= 2n pi
    make_kpt for uniq_kptji_ids [ 7 11]
kpt = [ 0.78920454 -0.78920454  0.        ]
adapted_ji_idx = [12 18]
memory = 1006.624768
int3c2e [1/1], AO [0:29], ncol = 9801
kpt = [ 0.          0.         -0.78920454]
adapted_ji_idx = [21 29]
memory = 1008.893952
int3c2e [1/1], AO [0:29], ncol = 9801
Symmetry pattern (k + [ 0.78920454 -0.78920454  0.        ])*a= 2n pi
    make_kpt for [ 7 11]
Cholesky decomposition for j2c at kpt 8
Symmetry pattern (k - [ 1.18380681 -0.39460227 -0.39460227])*a= 2n pi
    make_kpt for uniq_kptji_ids [ 8 10 12 13]
kpt = [ 1.18380681 -0.39460227 -0.39460227]
adapted_ji_idx = [13]
memory = 1008.259072
int3c2e [1/1], AO [0:29], ncol = 9801
kpt = [ 0.39460227 -1.18380681  0.39460227]
adapted_ji_idx = [17]
memory = 1011.941376
int3c2e [1/1], AO [0:29], ncol = 9801
kpt = [ 0.39460227  0.39460227 -1.18380681]
adapted_ji_idx = [22]
memory = 1011.539968
int3c2e [1/1], AO [0:29], ncol = 9801
kpt = [-0.39460227 -0.39460227 -0.39460227]
adapted_ji_idx = [28]
memory = 1011.93728
int3c2e [1/1], AO [0:29], ncol = 9801
Symmetry pattern (k + [ 1.18380681 -0.39460227 -0.39460227])*a= 2n pi
    make_kpt for [ 8 10 12 13]
    CPU time for j3c 218326.66 sec, wall time   7311.65 sec
    CPU time for Init get_k_kpts 218327.35 sec, wall time   7311.68 sec
    CPU time for get_k_kpts: make_kpt ki>=kj (0,*)      3.58 sec, wall time      0.27 sec
    CPU time for get_k_kpts: make_kpt ki>=kj (1,*)     13.03 sec, wall time      0.42 sec
    CPU time for get_k_kpts: make_kpt ki>=kj (2,*)     15.95 sec, wall time      0.50 sec
    CPU time for get_k_kpts: make_kpt ki>=kj (3,*)     18.91 sec, wall time      0.60 sec
    CPU time for get_k_kpts: make_kpt ki>=kj (4,*)     22.88 sec, wall time      0.72 sec
    CPU time for get_k_kpts: make_kpt ki>=kj (5,*)     24.81 sec, wall time      0.81 sec
    CPU time for get_k_kpts: make_kpt ki>=kj (6,*)     30.85 sec, wall time      0.98 sec
    CPU time for get_k_kpts: make_kpt ki>=kj (7,*)     35.09 sec, wall time      1.10 sec
Monkhorst pack size [2 2 2] ew_eta 2.6034247657824383 ew_cut 2.7035853562553935
Ewald components = 0, -1.46905476456693, 1.32508344356495
    CPU time for get_j pass 1     14.41 sec, wall time      0.52 sec
    CPU time for get_j pass 2      5.34 sec, wall time      0.30 sec
    CPU time for vj and vk 218518.87 sec, wall time   7318.11 sec
Ewald components = 9.1775830151223e-178, -596.417259326552, 523.385019500803
E1 = (-240.5501762406663+2.443083060466527e-29j)  E_coul = (40.8630623373304+1.984888342269642e-18j)
init E= -272.719353729084
cond(S) = [7.83467950e+07 3.12664062e+07 3.12664063e+07 2.19833434e+09
 3.12664042e+07 2.19837241e+09 2.19837178e+09 3.12664052e+07]
    CPU time for initialize scf 221719.83 sec, wall time   7421.22 sec
HOMO = 0.0915841916859  LUMO = 0.0987501130128
     k-point                  mo_energy
   0 ( 0.000  0.000  0.000)   [-48.85563895 -20.36521408  -3.6380928   -2.34685701  -1.85297951
  -1.85297951  -1.85295307   0.09126928   0.09126928   0.09158419] [9.87501130e-02 1.10433620e+00 1.10439824e+00 1.10439826e+00
 1.26933694e+00 1.33178806e+00 1.33189520e+00 1.44090901e+00
 1.44107723e+00 1.44107723e+00 1.99263816e+00 1.99263818e+00
 1.99267356e+00 2.02449247e+00 2.44420964e+00 2.44420968e+00
 2.44436609e+00 2.66813107e+00 2.66818827e+00 2.72379016e+00
 2.72385475e+00 2.72385475e+00 2.91016585e+00 3.10830862e+00
 3.10836947e+00 3.42060267e+00 3.42060279e+00 3.42066829e+00
 3.48425244e+00 3.48429250e+00 3.48429268e+00 5.37892700e+00
 5.37892711e+00 5.37894635e+00 5.83532395e+00 5.91951857e+00
 5.91951863e+00 5.91955994e+00 5.92075824e+00 5.92084503e+00
 6.07445088e+00 6.10169208e+00 6.10171799e+00 6.10171801e+00
 6.29543066e+00 6.29543066e+00 6.29545161e+00 7.02532571e+00
 7.02534309e+00 7.02534421e+00 7.81884973e+00 7.88838871e+00
 7.88841670e+00 7.88841676e+00 8.09536317e+00 8.09539977e+00
 9.31551567e+00 9.31553281e+00 9.31553428e+00 1.61646487e+01
 1.62379737e+01 1.62379737e+01 1.62379744e+01 1.64626814e+01
 1.64627129e+01 1.64627129e+01 1.73779327e+01 1.99358196e+01
 1.99358196e+01 1.99358352e+01 2.00724242e+01 2.00724494e+01
 2.72310950e+01 2.72310951e+01 2.72311480e+01 3.02288664e+01
 3.41099357e+01 3.41099643e+01 3.41099644e+01 4.42510021e+01
 4.42510644e+01 4.42510644e+01 4.42736789e+01 4.42737632e+01
 7.77133289e+01 1.39024088e+02 1.39024088e+02 1.39024125e+02
 1.51300553e+02]
   1 (-0.000 -0.000  0.500)   [-48.85472152 -20.35615261  -3.34561453  -1.86563509  -1.85286009
  -1.85283519  -0.92944683  -0.24793726   0.06445931   0.06529902] [  0.70527234   0.83514854   1.1133599    1.1133776    1.30775688
   1.371813     1.37198143   1.60083673   1.69562616   1.69570277
   1.77745955   1.77757807   2.18353756   2.23027848   2.31717896
   2.31723262   2.48712212   2.53247503   2.5324774    2.58331081
   2.79071655   2.7907697    2.89435305   2.91269935   3.0323206
   3.03236981   3.16221187   3.28947896   3.28952267   3.55363676
   3.55363971   4.2141446    4.31182885   4.31186726   4.94325117
   5.26950893   5.26951524   5.69492244   5.72793982   5.72795101
   5.92968704   6.10345966   6.13037608   6.1303788    6.57763649
   6.71472222   6.71472251   6.78060197   6.78062581   6.87170224
   7.15979725   7.1736686    7.17369476   7.62705546   7.62707675
   7.80849427   8.51852824   8.51855848   8.82331479  16.18869155
  16.2215081   16.22153394  16.24845489  16.30497496  16.31062136
  16.31062896  16.51654233  19.91359528  19.9355025   19.9355107
  20.22723804  20.22724321  27.03557872  27.03561289  27.76128603
  30.70624418  34.04793431  34.04795362  34.18487569  44.17260013
  44.17263957  44.2280923   44.42003818  44.42011988  77.67366114
 138.87961751 138.87964184 139.39452191 152.30858187]
   2 ( 0.000  0.500 -0.000)   [-48.85472152 -20.35615261  -3.34561453  -1.86563509  -1.85286009
  -1.85283519  -0.92944683  -0.24793726   0.06445931   0.06529902] [  0.70527234   0.83514854   1.1133599    1.1133776    1.30775688
   1.371813     1.37198143   1.60083673   1.69562616   1.69570277
   1.77745955   1.77757807   2.18353808   2.23027848   2.31717896
   2.31723262   2.48712265   2.53247503   2.5324774    2.58331081
   2.79071655   2.7907697    2.89435305   2.91269935   3.0323206
   3.0323698    3.16221353   3.28947885   3.28952268   3.55363667
   3.55363985   4.2141446    4.3118289    4.31186684   4.94325136
   5.26950892   5.26951524   5.69492285   5.72793982   5.72795101
   5.92968704   6.10345966   6.13037606   6.13037883   6.57763797
   6.7147222    6.71472252   6.78060199   6.78062578   6.87170231
   7.15979725   7.1736685    7.17369478   7.62705546   7.62707675
   7.80849427   8.51852825   8.51855846   8.82331479  16.18869155
  16.2215081   16.22153394  16.24845489  16.30497497  16.31062136
  16.31062895  16.51654308  19.91359528  19.9355025   19.9355107
  20.22723804  20.2272432   27.03557872  27.03561289  27.76128619
  30.70624418  34.0479343   34.04795363  34.18487569  44.17260013
  44.17263957  44.2280923   44.42003818  44.42011988  77.67366115
 138.87961751 138.87964184 139.39452193 152.30858187]
   3 ( 0.000  0.500  0.500)   [-4.88546966e+01 -2.03560159e+01 -3.34164584e+00 -1.86258788e+00
 -1.85573383e+00 -1.85573383e+00 -9.03316196e-01 -1.24431990e-01
  2.76584948e-02  2.76584950e-02] [  0.77037508   0.82162669   0.91270996   1.20361022   1.20361022
   1.46597042   1.54360027   1.72289822   1.72289826   1.83556836
   1.9783269    1.97832694   2.02208184   2.10929508   2.1092951
   2.25079397   2.31593031   2.41428204   2.41428204   2.48332043
   2.74568643   2.7863937    2.88700073   2.88794028   3.01760002
   3.18996343   3.25143793   3.25143806   3.46272068   3.46272073
   4.08757998   4.08758001   4.48506601   4.5291382    5.51781209
   5.5178121    5.58010118   5.64110148   5.64110149   5.77587518
   5.91409935   6.03345051   6.10609961   6.25355178   6.31119648
   6.37766717   6.37766718   6.53711347   6.68040759   6.68040763
   7.53260084   7.53260085   7.57340754   7.69107057   7.83254498
   7.83254498   8.30202559   8.76186005   9.47927927  16.17747183
  16.19167533  16.25204321  16.27829823  16.27829823  16.28844977
  16.28844977  18.41171553  19.7204854   19.72048541  19.77112479
  20.03975443  20.06508641  27.41481053  27.44702572  27.44702573
  31.30059235  34.16698986  34.16698986  34.221608    44.14119964
  44.14301109  44.14301109  44.43922011  44.57197717  77.67706039
 139.17956653 139.18704502 139.18704502 152.82505828]
   4 ( 0.500  0.000  0.000)   [-48.85472152 -20.35615261  -3.34561453  -1.86563508  -1.85286009
  -1.85283519  -0.92944683  -0.24793726   0.06445931   0.06529902] [  0.70527234   0.83514854   1.1133599    1.11337761   1.30775688
   1.371813     1.37198143   1.6008367    1.69562615   1.6957028
   1.77745955   1.77757807   2.18353831   2.23027838   2.31717899
   2.31723265   2.48712292   2.53247501   2.53247744   2.58331077
   2.79071656   2.7907697    2.89435304   2.91269935   3.03232066
   3.0323698    3.16221414   3.28947885   3.28952278   3.5536375
   3.55363965   4.21414462   4.31182926   4.31186716   4.94325148
   5.26950899   5.26951522   5.694923     5.72793982   5.72795102
   5.92968704   6.10345966   6.13037619   6.1303788    6.57763853
   6.71472235   6.71472249   6.78060191   6.78062603   6.87170214
   7.15979725   7.17366852   7.17369487   7.62705545   7.62707676
   7.80849427   8.51852827   8.51855847   8.8233148   16.18869155
  16.22150811  16.22153394  16.24845489  16.30497497  16.31062137
  16.31062896  16.51654352  19.91359529  19.9355025   19.9355107
  20.22723803  20.22724325  27.03557873  27.03561289  27.76128617
  30.70624418  34.0479343   34.04795363  34.18487569  44.17260013
  44.17263957  44.2280923   44.42003819  44.42011988  77.67366116
 138.87961751 138.87964184 139.3945219  152.30858187]
   5 ( 0.500  0.000  0.500)   [-4.88546957e+01 -2.03560266e+01 -3.34165522e+00 -1.86292572e+00
 -1.85580751e+00 -1.85577447e+00 -9.02547725e-01 -1.29872195e-01
  2.63616612e-02  2.71847130e-02] [  0.77038872   0.82176793   0.91308852   1.20380982   1.20390482
   1.46595563   1.54371275   1.72277688   1.72291614   1.83563251
   1.97844503   1.97851455   2.02220045   2.10925189   2.10929323
   2.25079221   2.31588147   2.41418282   2.41419524   2.48327075
   2.74580803   2.78631399   2.88692128   2.88799359   3.01748037
   3.18994128   3.2514169    3.25145131   3.46264866   3.462709
   4.08762988   4.0876822    4.4851603    4.52915153   5.51779018
   5.51786574   5.58003544   5.64107703   5.64111267   5.77585875
   5.91418485   6.03343378   6.10607314   6.2535567    6.3111702
   6.37766984   6.37767563   6.53711112   6.68042359   6.68044315
   7.53257831   7.53261386   7.57344597   7.69101753   7.83249231
   7.83254889   8.3020735    8.7618886    9.47936286  16.1774712
  16.19167531  16.25207055  16.27829827  16.27829865  16.28842289
  16.28845228  18.41181167  19.72048513  19.72050239  19.77110801
  20.03973837  20.06510398  27.41475713  27.44702277  27.4470788
  31.300627    34.16696037  34.16699065  34.22163691  44.1412623
  44.14294836  44.14301116  44.43917046  44.57203995  77.67706087
 139.17952968 139.18704469 139.18708177 152.82509481]
   6 ( 0.500  0.500  0.000)   [-4.88546957e+01 -2.03560266e+01 -3.34165522e+00 -1.86292572e+00
 -1.85580751e+00 -1.85577447e+00 -9.02547725e-01 -1.29872195e-01
  2.63616612e-02  2.71847130e-02] [  0.77038872   0.82176793   0.91308852   1.20380982   1.20390482
   1.46595563   1.54371275   1.72277688   1.72291614   1.83563251
   1.97844503   1.97851455   2.02220045   2.10925189   2.10929323
   2.25079221   2.31588147   2.41418282   2.41419524   2.48327115
   2.74580859   2.78631399   2.88692128   2.88799359   3.01748057
   3.18994127   3.2514169    3.25145131   3.46264865   3.462709
   4.08762986   4.08768215   4.48516698   4.52915149   5.51779018
   5.51786574   5.58003544   5.64107703   5.64111267   5.77585875
   5.91418711   6.03343378   6.10607312   6.2535567    6.3111741
   6.37766984   6.37767563   6.53711112   6.68042358   6.68044313
   7.53257831   7.53261386   7.57344597   7.6910178    7.83249231
   7.83254889   8.3020735    8.76188858   9.47937866  16.1774712
  16.19167531  16.25207055  16.27829827  16.27829865  16.28842289
  16.28845228  18.4118219   19.72048513  19.72050239  19.77110801
  20.03973837  20.06510449  27.41475713  27.44702277  27.4470788
  31.30063002  34.16696037  34.16699065  34.22163691  44.1412623
  44.14294836  44.14301116  44.43917074  44.57203995  77.67706087
 139.17952968 139.18704469 139.18708177 152.82509497]
   7 ( 0.500  0.500  0.500)   [-48.85472152 -20.35615261  -3.34561453  -1.86563508  -1.85286009
  -1.85283519  -0.92944683  -0.24793727   0.06445931   0.06529902] [  0.70527234   0.83514854   1.1133599    1.11337761   1.30775688
   1.371813     1.37198143   1.60083668   1.69562616   1.6957028
   1.77745955   1.77757807   2.18353767   2.23027829   2.31717901
   2.31723267   2.48712238   2.53247503   2.53247744   2.58331072
   2.79071656   2.7907697    2.89435303   2.91269937   3.03232068
   3.03236983   3.16221229   3.28947869   3.28952278   3.55363755
   3.55363984   4.21414462   4.3118294    4.3118666    4.94325125
   5.269509     5.26951524   5.69492255   5.72793982   5.72795102
   5.92968704   6.10345967   6.1303762    6.13037883   6.57763693
   6.71472235   6.71472253   6.78060198   6.78062604   6.87170192
   7.15979724   7.17366839   7.17369488   7.62705544   7.62707676
   7.80849427   8.51852828   8.51855846   8.82331481  16.18869155
  16.22150811  16.22153395  16.24845489  16.30497497  16.31062137
  16.31062895  16.51654266  19.91359528  19.9355025   19.9355107
  20.22723804  20.22724326  27.03557873  27.03561289  27.76128601
  30.70624418  34.04793429  34.04795363  34.18487569  44.17260013
  44.17263957  44.2280923   44.42003819  44.42011988  77.67366114
 138.87961751 138.87964184 139.39452189 152.30858187]
    CPU time for get_k_kpts: make_kpt ki>=kj (0,*)      3.22 sec, wall time      0.11 sec
    CPU time for get_k_kpts: make_kpt ki>=kj (1,*)     11.46 sec, wall time      0.36 sec
    CPU time for get_k_kpts: make_kpt ki>=kj (2,*)     12.82 sec, wall time      0.40 sec
    CPU time for get_k_kpts: make_kpt ki>=kj (3,*)     16.92 sec, wall time      0.53 sec
    CPU time for get_k_kpts: make_kpt ki>=kj (4,*)     20.24 sec, wall time      0.64 sec
    CPU time for get_k_kpts: make_kpt ki>=kj (5,*)     24.32 sec, wall time      0.76 sec
    CPU time for get_k_kpts: make_kpt ki>=kj (6,*)     27.70 sec, wall time      0.87 sec
    CPU time for get_k_kpts: make_kpt ki>=kj (7,*)     32.23 sec, wall time      1.01 sec
Monkhorst pack size [2 2 2] ew_eta 2.6034247657824383 ew_cut 2.7035853562553935
Ewald components = 0, -1.46905476456693, 1.32508344356495
    CPU time for get_j pass 1     16.19 sec, wall time      0.54 sec
    CPU time for get_j pass 2      6.03 sec, wall time      0.29 sec
    CPU time for vj and vk    176.27 sec, wall time      5.69 sec
Ewald components = 9.1775830151223e-178, -596.417259326552, 523.385019500803
E1 = (-250.43028211473467+2.194421384099207e-26j)  E_coul = (48.8947747752183-7.852432154792885e-20j)
cycle= 1 E= -274.567747165265  delta_E= -1.85  |g|= 2.81  |ddm|=  234
    CPU time for cycle= 1    178.69 sec, wall time      5.99 sec
diis-norm(errvec)=9.32994
diis-c [-87.0477271+0.j   1.       +0.j]
HOMO = 0.171401609486  LUMO = 0.689391730487
     k-point                  mo_energy
   0 ( 0.000  0.000  0.000)   [-48.27033495 -19.59044995  -3.15664679  -1.67502997  -1.6750124
  -1.6750124   -0.64082503   0.17114133   0.17114133   0.17140161] [  0.68939173   1.09493893   1.09494095   1.09494097   1.22295232
   1.33528194   1.33529503   1.46612631   1.4661817    1.46618171
   2.01086091   2.10374298   2.103743     2.10375106   2.46723123
   2.46723126   2.46727218   2.64378881   2.64380724   2.69753427
   2.69754553   2.69754553   3.05785364   3.24537447   3.24542051
   3.51784645   3.51784647   3.51789617   3.52425629   3.524283
   3.5242832    5.64684468   5.64691181   5.64691201   5.96297654
   6.00139842   6.00139845   6.00141423   6.05161399   6.05164844
   6.32940066   6.36269579   6.36270857   6.36270859   6.54585883
   6.54585883   6.54586036   7.16802656   7.16803126   7.16803261
   8.12942776   8.26954624   8.26954625   8.26958432   8.45738573
   8.45742699   9.39441324   9.3944346    9.39443631  16.34447631
  16.41813274  16.41813274  16.41813276  16.64144935  16.64146014
  16.6414602   17.52481595  20.22603186  20.22603186  20.22603787
  20.36430292  20.36431234  27.96816889  27.96819391  27.96819394
  30.92883393  34.58913085  34.58913566  34.58913571  45.02707637
  45.02707637  45.02709538  45.04970753  45.04973248  78.35412904
 139.94505686 139.94507131 139.94507132 152.21504311]
   1 (-0.000 -0.000  0.500)   [-48.27033448 -19.5905229   -3.1564851   -1.67845537  -1.67523989
  -1.67522761  -0.58881745  -0.05902075   0.1368121    0.13683252] [  0.80293517   1.0660987    1.1275431    1.127553     1.30678776
   1.39702693   1.39709764   1.63028723   1.71476118   1.71477717
   1.8207713    1.82081615   2.14840305   2.24386425   2.32112374
   2.32115092   2.47488261   2.5693236    2.58474583   2.58475054
   2.78616537   2.78618241   2.87203546   3.02873651   3.14139183
   3.14141276   3.29508722   3.33616507   3.33617567   3.54514668
   3.54514728   4.32685079   4.37755709   4.37756143   5.05334479
   5.52430172   5.52433065   5.85304096   5.92916775   5.9291744
   6.18600542   6.27707827   6.27708493   6.35744093   6.83014089
   6.92247128   6.92247263   6.98125571   6.98129664   7.09348734
   7.37851456   7.37852741   7.43214095   8.0155839    8.01560334
   8.15007708   8.86739677   8.86743728   9.11220468  16.36846083
  16.40182613  16.4018347   16.4285032   16.4862891   16.49132156
  16.49132403  16.66901712  20.20249128  20.22707935  20.2270825
  20.51615242  20.51615394  27.77461983  27.77463615  28.49426733
  31.40314003  34.52935301  34.52935623  34.67009945  44.94916745
  44.94917932  45.00426056  45.1951628   45.19518722  78.31440359
 139.80084825 139.80085783 140.3149535  153.22222889]
   2 ( 0.000  0.500 -0.000)   [-48.27033448 -19.5905229   -3.1564851   -1.67845537  -1.67523989
  -1.67522761  -0.58881745  -0.05902075   0.1368121    0.13683252] [  0.80293517   1.06609871   1.1275431    1.127553     1.30678776
   1.39702693   1.39709764   1.63028723   1.71476118   1.71477717
   1.8207713    1.82081615   2.14840363   2.24386425   2.32112374
   2.32115092   2.47488344   2.5693236    2.58474583   2.58475054
   2.78616537   2.78618242   2.87203546   3.02873651   3.14139184
   3.14141275   3.29508898   3.33616492   3.33617571   3.54514671
   3.54514733   4.32685079   4.37755665   4.37756154   5.05334505
   5.52430172   5.52433064   5.85304131   5.92916775   5.9291744
   6.18600542   6.27707832   6.2770849    6.35744093   6.83014231
   6.92247126   6.92247265   6.98125572   6.98129662   7.09348756
   7.37851447   7.37852743   7.43214095   8.01558391   8.01560333
   8.15007708   8.86739675   8.86743729   9.11220468  16.36846083
  16.40182613  16.4018347   16.4285032   16.4862891   16.49132156
  16.49132403  16.66901795  20.20249128  20.22707935  20.2270825
  20.51615243  20.51615394  27.77461983  27.77463615  28.49426749
  31.40314003  34.529353    34.52935623  34.67009945  44.94916745
  44.94917932  45.00426056  45.1951628   45.19518722  78.31440361
 139.80084825 139.80085783 140.31495352 153.22222889]
   3 ( 0.000  0.500  0.500)   [-4.82703343e+01 -1.95905436e+01 -3.15635081e+00 -1.67792317e+00
 -1.67613304e+00 -1.67613304e+00 -5.77386433e-01 -3.13273659e-02
  1.01262192e-01  1.01262192e-01] [  0.82102172   0.88669625   1.07934131   1.29918619   1.29918619
   1.53814878   1.55997311   1.69254183   1.69254191   1.80216288
   2.00749271   2.00749279   2.02520017   2.10708395   2.10708397
   2.18798801   2.26748474   2.48487177   2.48487177   2.50669355
   2.79937966   2.91771575   2.94421561   2.95823485   3.13359505
   3.24176138   3.30607664   3.30607676   3.47884219   3.47884224
   4.1046787    4.10467873   4.5867414    4.65210245   5.61007231
   5.61007231   5.6719471    5.9422604    5.9422604    5.99811232
   6.09631601   6.18684512   6.28711925   6.48528449   6.50830397
   6.6335673    6.6335673    6.77859463   6.9314708    6.93147084
   7.91966129   7.91966129   7.9624241    8.02023481   8.02023481
   8.05815336   8.49232768   9.13068519   9.78222259  16.35778299
  16.37136854  16.4327453   16.45825331  16.45825331  16.46894653
  16.46894654  18.56834921  20.01269223  20.01269223  20.06287811
  20.33089124  20.35121092  28.14918119  28.18291708  28.18291709
  31.98957302  34.64771227  34.64771227  34.70385481  44.91800962
  44.91963683  44.91963683  45.21379131  45.34635095  78.31774761
 140.10017942 140.10776261 140.10776261 153.73850003]
   4 ( 0.500  0.000  0.000)   [-48.27033448 -19.5905229   -3.1564851   -1.67845537  -1.67523989
  -1.67522761  -0.58881745  -0.05902075   0.1368121    0.13683252] [  0.80293517   1.06609871   1.12754311   1.127553     1.30678777
   1.39702693   1.39709764   1.63028714   1.71476115   1.71477722
   1.82077129   1.82081615   2.14840408   2.24386404   2.32112379
   2.32115098   2.474884     2.56932351   2.58474582   2.58475055
   2.78616538   2.78618242   2.87203547   3.0287365    3.14139193
   3.14141277   3.29509015   3.33616485   3.33617584   3.54514702
   3.54514773   4.32685083   4.37755687   4.37756207   5.05334526
   5.52430171   5.52433069   5.85304153   5.92916775   5.9291744
   6.18600542   6.27707828   6.27708511   6.35744093   6.83014326
   6.92247144   6.92247261   6.98125567   6.98129677   7.0934877
   7.37851442   7.37852755   7.43214094   8.01558391   8.01560332
   8.15007708   8.86739674   8.86743733   9.11220471  16.36846083
  16.40182613  16.4018347   16.4285032   16.4862891   16.49132157
  16.49132403  16.66901858  20.20249128  20.22707935  20.2270825
  20.51615242  20.51615399  27.77461983  27.77463615  28.49426756
  31.40314004  34.529353    34.52935624  34.67009945  44.94916745
  44.94917932  45.00426056  45.1951628   45.19518723  78.31440361
 139.80084825 139.80085784 140.31495351 153.22222889]
   5 ( 0.500  0.000  0.500)   [-4.82703343e+01 -1.95905436e+01 -3.15635057e+00 -1.67790479e+00
 -1.67615193e+00 -1.67613474e+00 -5.77385665e-01 -3.14360144e-02
  1.01172057e-01  1.01263131e-01] [  0.82103352   0.88670651   1.07934594   1.29925309   1.29928586
   1.53816365   1.55996959   1.69252467   1.69256483   1.80218435
   2.00752119   2.00753702   2.02524917   2.10706875   2.10708508
   2.18797725   2.26746307   2.4848244    2.4848331    2.50666204
   2.79942572   2.91767238   2.94424348   2.95821255   3.13355956
   3.24175715   3.30608785   3.30609231   3.47880897   3.47884234
   4.10470508   4.10472871   4.58678654   4.65208834   5.61006754
   5.61009486   5.67192338   5.94220547   5.94225297   5.99814133
   6.09636028   6.18684126   6.28711684   6.48527792   6.50830663
   6.63355963   6.63360444   6.7786348    6.93144448   6.93145155
   7.91966536   7.9196993    7.96238898   8.02021115   8.02023532
   8.05817677   8.4923449    9.13064818   9.78226121  16.35778303
  16.37136849  16.43275451  16.45825315  16.45825331  16.46893769
  16.46894757  18.56841482  20.01269205  20.01269916  20.06287123
  20.33088596  20.35121882  28.14920581  28.18289175  28.18291624
  31.98960369  34.64770708  34.64771268  34.70386011  44.91799081
  44.9196369   44.91965566  45.21381455  45.34633189  78.31774796
 140.10019384 140.10774813 140.10776252 153.73853536]
   6 ( 0.500  0.500  0.000)   [-4.82703343e+01 -1.95905436e+01 -3.15635057e+00 -1.67790479e+00
 -1.67615193e+00 -1.67613474e+00 -5.77385665e-01 -3.14360144e-02
  1.01172057e-01  1.01263131e-01] [  0.82103352   0.88670651   1.07934594   1.29925309   1.29928586
   1.53816365   1.55996959   1.69252467   1.69256483   1.80218435
   2.00752119   2.00753702   2.02524917   2.10706875   2.10708508
   2.18797725   2.26746307   2.4848244    2.4848331    2.50666233
   2.79942653   2.91767238   2.94424348   2.95821254   3.1335597
   3.24175715   3.30608785   3.30609231   3.47880897   3.47884234
   4.10470505   4.10472865   4.58679194   4.65208828   5.61006754
   5.61009486   5.67192338   5.94220547   5.94225297   5.99814315
   6.09636028   6.18684124   6.28711684   6.48528181   6.50830663
   6.63355963   6.63360444   6.7786348    6.93144446   6.93145154
   7.91966536   7.9196993    7.96238898   8.02021115   8.02023532
   8.05817702   8.4923449    9.13064816   9.78227303  16.35778303
  16.37136849  16.43275451  16.45825315  16.45825331  16.46893769
  16.46894757  18.56842293  20.01269205  20.01269916  20.06287123
  20.33088595  20.35121916  28.14920581  28.18289175  28.18291623
  31.98960591  34.64770708  34.64771268  34.70386011  44.9179908
  44.91963691  44.91965566  45.21381475  45.34633189  78.31774796
 140.10019384 140.10774813 140.10776252 153.73853539]
   7 ( 0.500  0.500  0.500)   [-48.27033448 -19.5905229   -3.1564851   -1.67845536  -1.67523989
  -1.67522761  -0.58881745  -0.05902075   0.1368121    0.13683252] [  0.80293517   1.06609871   1.12754311   1.12755301   1.30678776
   1.39702693   1.39709764   1.63028705   1.71476116   1.71477721
   1.8207713    1.82081615   2.14840333   2.24386384   2.32112384
   2.32115102   2.47488302   2.56932342   2.58474583   2.58475055
   2.78616538   2.78618241   2.8720355    3.02873649   3.14139197
   3.1414128    3.29508803   3.33616457   3.33617574   3.54514703
   3.54514792   4.32685086   4.37755629   4.37756211   5.05334493
   5.52430172   5.52433069   5.85304113   5.92916775   5.9291744
   6.18600542   6.2770783    6.27708513   6.35744094   6.83014155
   6.92247145   6.92247264   6.98125571   6.98129678   7.09348743
   7.37851428   7.37852751   7.43214093   8.0155839    8.0156033
   8.15007708   8.86739673   8.86743733   9.11220474  16.36846082
  16.40182613  16.4018347   16.4285032   16.4862891   16.49132157
  16.49132403  16.66901751  20.20249128  20.22707935  20.2270825
  20.51615243  20.516154    27.77461983  27.77463615  28.49426739
  31.40314004  34.52935298  34.52935623  34.67009945  44.94916745
  44.94917931  45.00426056  45.1951628   45.19518723  78.31440359
 139.80084825 139.80085784 140.31495349 153.22222889]
    CPU time for get_k_kpts: make_kpt ki>=kj (0,*)      2.84 sec, wall time      0.09 sec
    CPU time for get_k_kpts: make_kpt ki>=kj (1,*)      8.75 sec, wall time      0.28 sec
    CPU time for get_k_kpts: make_kpt ki>=kj (2,*)     11.08 sec, wall time      0.35 sec
    CPU time for get_k_kpts: make_kpt ki>=kj (3,*)     15.80 sec, wall time      0.50 sec
    CPU time for get_k_kpts: make_kpt ki>=kj (4,*)     22.06 sec, wall time      0.69 sec
    CPU time for get_k_kpts: make_kpt ki>=kj (5,*)     24.83 sec, wall time      0.78 sec
    CPU time for get_k_kpts: make_kpt ki>=kj (6,*)     27.28 sec, wall time      0.86 sec
    CPU time for get_k_kpts: make_kpt ki>=kj (7,*)     32.54 sec, wall time      1.02 sec
Monkhorst pack size [2 2 2] ew_eta 2.6034247657824383 ew_cut 2.7035853562553935
Ewald components = 0, -1.46905476456693, 1.32508344356495
    CPU time for get_j pass 1     15.04 sec, wall time      0.48 sec
    CPU time for get_j pass 2      6.21 sec, wall time      0.30 sec
    CPU time for vj and vk    172.69 sec, wall time      5.55 sec
Ewald components = 9.1775830151223e-178, -596.417259326552, 523.385019500803
E1 = (-247.40007235131367+3.6225257309556756e-26j)  E_coul = (45.75233430764022+3.784759546283547e-19j)
cycle= 2 E= -274.679977869422  delta_E= -0.112  |g|= 1.17  |ddm|=  180
    CPU time for cycle= 2    178.19 sec, wall time      5.73 sec
diis-norm(errvec)=4.62288
diis-c [-15.1542453-5.60519386e-45j   0.2272394-3.40725162e-31j
   0.7727606+3.40725162e-31j]
HOMO = 0.0518113949774  LUMO = 0.669786396153
     k-point                  mo_energy
   0 ( 0.000  0.000  0.000)   [-48.44710448 -20.04565753  -3.18965045  -1.71135837  -1.7113533
  -1.7113533   -0.76585451   0.0516799    0.0516799    0.05181139] [  0.6697864    1.09914408   1.09914438   1.0991444    1.24377288
   1.33012399   1.3301324    1.47034553   1.4703605    1.47036051
   2.02751383   2.04815549   2.04815552   2.04815888   2.4598689
   2.45986894   2.45988589   2.65696387   2.65697215   2.70976992
   2.70977463   2.70977464   2.99280375   3.18558692   3.18560592
   3.47079609   3.47079616   3.47081614   3.50656196   3.50657208
   3.50657231   5.51283212   5.51286231   5.51286246   5.92756319
   5.99266896   5.99266899   5.99267516   6.01906013   6.01907399
   6.21018609   6.24961742   6.24962268   6.24962271   6.42890433
   6.42890433   6.42890477   7.12441852   7.12441929   7.12442062
   7.9759201    8.07189874   8.07189877   8.07191642   8.27386904
   8.27388791   9.36785773   9.36786569   9.36786729  16.31433144
  16.38792994  16.38792994  16.38792994  16.6113118   16.61131594
  16.611316    17.49870603  20.16121538  20.16121538  20.1612176
  20.29885988  20.29886341  27.57021003  27.57022324  27.57022328
  30.5550983   34.47108389  34.47108568  34.47108573  44.60202711
  44.60202711  44.60203788  44.62479366  44.62480786  78.20286336
 139.46766632 139.46767452 139.46767453 151.74526508]
   1 (-0.000 -0.000  0.500)   [-4.84471038e+01 -2.00457161e+01 -3.18937577e+00 -1.71465862e+00
 -1.71154193e+00 -1.71153830e+00 -7.18270490e-01 -1.30165889e-01
  2.38442008e-02  2.38633160e-02] [  0.79367421   1.00473937   1.12752515   1.12753044   1.31996722
   1.390543     1.39056417   1.61738442   1.70196296   1.70197018
   1.80482547   1.80483656   2.16163831   2.23256204   2.31998737
   2.31999935   2.48736493   2.56121235   2.56121577   2.58301224
   2.78756377   2.78757205   2.89148023   2.9648786    3.0891753
   3.08918497   3.22601148   3.31666155   3.31666707   3.55194252
   3.55194358   4.27342682   4.34556127   4.34556235   5.0272195
   5.4082762    5.40828878   5.79827581   5.84190926   5.84191174
   6.06642022   6.23084494   6.23084833   6.23833793   6.71276364
   6.82886963   6.82887039   6.89380098   6.89381805   6.98818221
   7.3231988    7.32386634   7.32387102   7.81538624   7.81539509
   7.98400736   8.6937461    8.69376452   8.97970841  16.3382964
  16.37163392  16.37163723  16.39835292  16.4553967   16.46076398
  16.46076494  16.64335206  20.13758534  20.16184335  20.16184456
  20.45172265  20.45172316  27.37550281  27.37551143  28.09844405
  31.0332696   34.41106379  34.41106499  34.54751845  44.52383451
  44.52384125  44.57915284  44.77076991  44.77078379  78.16318126
 139.32333391 139.32333935 139.83781617 152.7529179 ]
   2 ( 0.000  0.500 -0.000)   [-4.84471038e+01 -2.00457161e+01 -3.18937577e+00 -1.71465862e+00
 -1.71154193e+00 -1.71153830e+00 -7.18270490e-01 -1.30165889e-01
  2.38442008e-02  2.38633159e-02] [  0.79367421   1.00473937   1.12752515   1.12753044   1.31996723
   1.390543     1.39056417   1.61738442   1.70196296   1.70197018
   1.80482547   1.80483655   2.16163888   2.23256204   2.31998737
   2.31999935   2.48736564   2.56121236   2.56121577   2.58301224
   2.78756377   2.78757205   2.89148023   2.9648786    3.0891753
   3.08918496   3.22601319   3.31666142   3.3166671    3.55194247
   3.55194369   4.27342682   4.3455609    4.34556238   5.02721972
   5.40827621   5.40828878   5.7982762    5.84190926   5.84191175
   6.06642022   6.23084498   6.2308483    6.23833793   6.71276517
   6.82886961   6.82887041   6.893801     6.89381803   6.98818231
   7.3231988    7.32386625   7.32387104   7.81538624   7.81539508
   7.98400736   8.69374609   8.69376453   8.97970841  16.3382964
  16.37163392  16.37163724  16.39835292  16.4553967   16.46076398
  16.46076493  16.64335286  20.13758534  20.16184335  20.16184456
  20.45172266  20.45172316  27.37550281  27.37551143  28.09844421
  31.0332696   34.41106378  34.41106499  34.54751845  44.52383451
  44.52384125  44.57915284  44.77076991  44.77078379  78.16318128
 139.32333391 139.32333935 139.83781619 152.7529179 ]
   3 ( 0.000  0.500  0.500)   [-4.84471034e+01 -2.00457343e+01 -3.18924575e+00 -1.71406152e+00
 -1.71242250e+00 -1.71242250e+00 -7.09037543e-01 -1.10320329e-01
 -4.30360911e-03 -4.30360894e-03] [  0.82977129   0.88424901   1.02299786   1.26840585   1.26840585
   1.51120904   1.54979553   1.70724377   1.70724387   1.81489296
   1.98880387   1.98880393   2.02712486   2.11288666   2.11288668
   2.21055686   2.28879317   2.44928699   2.44928699   2.5073151
   2.77812216   2.85493438   2.92826208   2.93116494   3.07773066
   3.20705434   3.27583584   3.27583586   3.47486024   3.4748603
   4.09516868   4.09516872   4.54461927   4.5955309    5.5984196
   5.59841961   5.65980144   5.79046349   5.79046349   5.93335564
   5.99007467   6.1683134    6.17987122   6.38959002   6.42210227
   6.51501181   6.51501182   6.67101148   6.8158726    6.81587266
   7.71925441   7.71925444   7.76189022   7.87131847   7.97072501
   7.97072501   8.44009983   8.93986415   9.6354593   16.32759738
  16.34123624  16.40242538  16.4280967   16.42809671  16.43864947
  16.43864948  18.53411049  19.94737422  19.94737422  19.9976445
  20.26598095  20.28679468  27.75310916  27.78541913  27.78541914
  31.62200952  34.52966895  34.52966895  34.5844784   44.4925544
  44.49422392  44.49422393  44.78963102  44.9223692   78.16654729
 139.62294062 139.63049593 139.63049593 153.26937022]
   4 ( 0.500  0.000  0.000)   [-4.84471038e+01 -2.00457161e+01 -3.18937577e+00 -1.71465862e+00
 -1.71154193e+00 -1.71153830e+00 -7.18270491e-01 -1.30165889e-01
  2.38442009e-02  2.38633159e-02] [  0.79367421   1.00473937   1.12752515   1.12753044   1.31996723
   1.390543     1.39056417   1.61738431   1.70196291   1.70197022
   1.80482547   1.80483656   2.16163919   2.23256177   2.31998744
   2.31999941   2.487366     2.56121235   2.56121579   2.58301212
   2.78756377   2.78757206   2.89148024   2.96487859   3.08917538
   3.08918496   3.22601405   3.31666133   3.31666716   3.55194335
   3.55194349   4.2734269    4.34556103   4.34556294   5.02721987
   5.40827619   5.40828883   5.79827639   5.84190926   5.84191175
   6.06642022   6.23084495   6.23084847   6.23833794   6.71276594
   6.8288698    6.82887036   6.89380093   6.89381823   6.98818235
   7.32319879   7.32386617   7.32387117   7.81538623   7.81539505
   7.98400736   8.69374607   8.69376458   8.97970846  16.3382964
  16.37163393  16.37163724  16.39835292  16.4553967   16.46076399
  16.46076494  16.64335334  20.13758535  20.16184335  20.16184456
  20.45172264  20.45172321  27.37550281  27.37551144  28.09844425
  31.03326961  34.41106378  34.411065    34.54751845  44.52383451
  44.52384125  44.57915284  44.7707699   44.7707838   78.16318128
 139.32333391 139.32333935 139.83781617 152.7529179 ]
   5 ( 0.500  0.000  0.500)   [-4.84471034e+01 -2.00457343e+01 -3.18924566e+00 -1.71405599e+00
 -1.71242802e+00 -1.71242309e+00 -7.09036695e-01 -1.10339076e-01
 -4.32436113e-03 -4.27776601e-03] [  0.8297737    0.88425276   1.02295976   1.26842565   1.26842696
   1.51121605   1.54979269   1.70723487   1.70725291   1.81490129
   1.9888166    1.98882361   2.02714258   2.11287995   2.11288798
   2.21055298   2.2887847    2.44926934   2.44927483   2.50730404
   2.77814019   2.85491658   2.92827363   2.93115542   3.07771498
   3.20705241   3.27584075   3.27584227   3.47484638   3.47485918
   4.09517936   4.09518967   4.544643     4.5955255    5.59841773
   5.59842856   5.65979212   5.79043848   5.79046018   5.93337518
   5.99008872   6.16831244   6.17987014   6.38959127   6.42210445
   6.5150079    6.5150268    6.67102932   6.81586185   6.81586477
   7.71925602   7.71927167   7.76187424   7.87133027   7.97071599
   7.97072517   8.44010642   8.93984702   9.63550388  16.3275974
  16.34123621  16.40242894  16.42809663  16.42809671  16.43864607
  16.43864988  18.53417987  19.94737414  19.94737682  19.99764192
  20.26597906  20.28679976  27.75312225  27.78540573  27.7854188
  31.62204477  34.52966699  34.52966913  34.58448043  44.49254372
  44.49422396  44.49423462  44.78964658  44.92235838  78.16654759
 139.62294881 139.63048771 139.63049589 153.2694065 ]
   6 ( 0.500  0.500  0.000)   [-4.84471034e+01 -2.00457343e+01 -3.18924566e+00 -1.71405599e+00
 -1.71242802e+00 -1.71242309e+00 -7.09036695e-01 -1.10339076e-01
 -4.32436113e-03 -4.27776601e-03] [  0.8297737    0.88425276   1.02295976   1.26842565   1.26842696
   1.51121605   1.54979269   1.70723487   1.70725291   1.81490129
   1.9888166    1.98882361   2.02714258   2.11287995   2.11288798
   2.21055299   2.2887847    2.44926934   2.44927483   2.50730418
   2.7781405    2.85491658   2.92827363   2.93115542   3.07771505
   3.2070524    3.27584075   3.27584227   3.47484637   3.47485918
   4.09517933   4.09518962   4.54464556   4.59552545   5.59841773
   5.59842856   5.65979212   5.79043848   5.79046018   5.93337518
   5.99008957   6.16831244   6.17987012   6.38959127   6.42210594
   6.5150079    6.5150268    6.67102931   6.81586183   6.81586476
   7.71925602   7.71927167   7.76187424   7.87133037   7.97071599
   7.97072517   8.44010642   8.939847     9.63550936  16.3275974
  16.34123621  16.40242894  16.42809663  16.42809671  16.43864607
  16.43864988  18.53418303  19.94737414  19.94737682  19.99764192
  20.26597905  20.28679989  27.75312225  27.78540573  27.78541879
  31.62204556  34.52966699  34.52966913  34.58448043  44.49254372
  44.49422396  44.49423462  44.78964664  44.92235838  78.16654759
 139.62294881 139.63048771 139.63049589 153.26940624]
   7 ( 0.500  0.500  0.500)   [-4.84471038e+01 -2.00457161e+01 -3.18937577e+00 -1.71465862e+00
 -1.71154193e+00 -1.71153830e+00 -7.18270491e-01 -1.30165889e-01
  2.38442009e-02  2.38633160e-02] [  0.79367421   1.00473937   1.12752515   1.12753044   1.31996722
   1.390543     1.39056417   1.61738422   1.70196292   1.70197021
   1.80482547   1.80483656   2.16163855   2.23256152   2.31998749
   2.31999946   2.48736531   2.56121236   2.56121579   2.58301201
   2.78756378   2.78757205   2.89148028   2.96487857   3.08917539
   3.08918499   3.22601235   3.31666106   3.31666705   3.55194332
   3.55194382   4.27342695   4.34556051   4.34556297   5.02721963
   5.4082762    5.40828884   5.798276     5.84190926   5.84191175
   6.06642022   6.23084497   6.23084849   6.23833795   6.71276443
   6.82886981   6.82887041   6.89380099   6.89381825   6.98818226
   7.32319879   7.32386603   7.32387112   7.81538621   7.81539502
   7.98400735   8.69374607   8.69376459   8.9797085   16.3382964
  16.37163393  16.37163724  16.39835292  16.4553967   16.46076399
  16.46076493  16.64335247  20.13758534  20.16184335  20.16184456
  20.45172265  20.45172322  27.37550281  27.37551144  28.09844411
  31.03326961  34.41106376  34.41106499  34.54751845  44.52383451
  44.52384125  44.57915284  44.7707699   44.7707838   78.16318126
 139.32333391 139.32333935 139.83781617 152.7529179 ]
    CPU time for get_k_kpts: make_kpt ki>=kj (0,*)      2.66 sec, wall time      0.08 sec
    CPU time for get_k_kpts: make_kpt ki>=kj (1,*)      8.97 sec, wall time      0.28 sec
    CPU time for get_k_kpts: make_kpt ki>=kj (2,*)     12.57 sec, wall time      0.40 sec
    CPU time for get_k_kpts: make_kpt ki>=kj (3,*)     16.03 sec, wall time      0.51 sec
    CPU time for get_k_kpts: make_kpt ki>=kj (4,*)     20.39 sec, wall time      0.64 sec
    CPU time for get_k_kpts: make_kpt ki>=kj (5,*)     25.27 sec, wall time      0.79 sec
    CPU time for get_k_kpts: make_kpt ki>=kj (6,*)     29.26 sec, wall time      0.92 sec
    CPU time for get_k_kpts: make_kpt ki>=kj (7,*)     33.60 sec, wall time      1.06 sec
Monkhorst pack size [2 2 2] ew_eta 2.6034247657824383 ew_cut 2.7035853562553935
Ewald components = 0, -1.46905476456693, 1.32508344356495
    CPU time for get_j pass 1     17.66 sec, wall time      0.57 sec
    CPU time for get_j pass 2      6.21 sec, wall time      0.30 sec
    CPU time for vj and vk    179.63 sec, wall time      5.78 sec
Ewald components = 9.1775830151223e-178, -596.417259326552, 523.385019500803
E1 = (-248.4691544868075+3.5596933257368426e-26j)  E_coul = (46.798912849159045+1.5977626209463147e-19j)
cycle= 3 E= -274.702481463397  delta_E= -0.0225  |g|= 0.274  |ddm|= 47.1
    CPU time for cycle= 3    184.04 sec, wall time      5.92 sec
diis-norm(errvec)=0.924722
diis-c [-0.12577621+0.00000000e+00j -0.07944285+4.45084841e-30j
  0.07409086+4.87541968e-30j  1.00535199-9.32626809e-30j]
HOMO = 0.0779919258232  LUMO = 0.690975000158
     k-point                  mo_energy
   0 ( 0.000  0.000  0.000)   [-48.49098552 -19.95620166  -3.2099871   -1.73265808  -1.73265808
  -1.73265653  -0.75651613   0.07798321   0.07798321   0.07799193] [  0.690975     1.09898403   1.09898405   1.09898415   1.24066987
   1.33092566   1.33092832   1.4668588    1.4668588    1.46686041
   2.02067968   2.06266783   2.06266786   2.0626709    2.45954888
   2.45954891   2.4595497    2.65308834   2.65308886   2.70740178
   2.70740212   2.70740213   3.00651196   3.19898015   3.19898103
   3.48173809   3.48173817   3.4817392    3.50901653   3.50901676
   3.50901713   5.54398502   5.54398723   5.5439874    5.92433554
   5.97879784   5.97879791   5.97879792   6.0125707    6.01257078
   6.24070943   6.26925778   6.26925781   6.26925796   6.45871251
   6.45871254   6.45871254   7.11919703   7.11919841   7.11919875
   8.00644195   8.11638663   8.11638666   8.11638875   8.31362324
   8.3136256    9.36816086   9.36816204   9.36816259  16.2936812
  16.36738066  16.36738067  16.36738067  16.59118895  16.59118901
  16.59118916  17.4830666   20.13524776  20.13524797  20.13524797
  20.27333995  20.27334021  27.64944867  27.64945197  27.64945201
  30.62996383  34.43687169  34.43687174  34.43687185  44.68624325
  44.68624326  44.68624664  44.70897936  44.70898386  78.16312669
 139.56154619 139.56154889 139.5615489  151.8382562 ]
   1 (-0.000 -0.000  0.500)   [-48.49098478 -19.95625341  -3.20966149  -1.73570551  -1.7328341
  -1.73283309  -0.6982547   -0.11162456   0.04860263   0.04861012] [  0.79813094   1.0219976    1.12684132   1.12684258   1.31641111
   1.39337531   1.39337642   1.61986995   1.70469838   1.70469915
   1.8073319    1.80733381   2.1577053    2.23519561   2.32006469
   2.32006571   2.48117031   2.56638744   2.56638789   2.57579981
   2.78560705   2.78560738   2.88704295   2.9803267    3.10307202
   3.10307264   3.24214      3.32002908   3.32002929   3.5472754
   3.54727626   4.28565709   4.35338853   4.35338915   5.02261945
   5.4323746    5.43237528   5.80065228   5.85166931   5.85167013
   6.09710646   6.23257254   6.23257284   6.26799334   6.73828348
   6.84817888   6.84817913   6.91016601   6.91016762   7.00593329
   7.31447376   7.31447422   7.33557146   7.86009506   7.86009622
   8.01567494   8.72944943   8.72945171   9.00078718  16.31766684
  16.35107539  16.35107553  16.37779099  16.43514144  16.44040652
  16.44040656  16.62646513  20.11199691  20.13605544  20.13605551
  20.42594743  20.42594755  27.45502804  27.45503018  28.17723872
  31.10643625  34.37665395  34.37665405  34.51495405  44.60810427
  44.6081064   44.66337402  44.85484992  44.85485431  78.1234571
 139.4172357  139.4172375  139.93164172 152.845809  ]
   2 ( 0.000  0.500 -0.000)   [-48.49098478 -19.95625341  -3.20966149  -1.73570551  -1.7328341
  -1.73283309  -0.6982547   -0.11162456   0.04860263   0.04861012] [  0.79813094   1.0219976    1.12684132   1.12684258   1.31641111
   1.39337531   1.39337642   1.61986995   1.70469838   1.70469915
   1.8073319    1.80733381   2.15770588   2.23519561   2.32006469
   2.32006571   2.48117107   2.56638743   2.5663879    2.57579981
   2.78560705   2.78560739   2.88704295   2.9803267    3.10307202
   3.10307263   3.24214177   3.32002903   3.32002924   3.54727538
   3.54727635   4.28565709   4.35338833   4.35338902   5.02261969
   5.43237461   5.43237528   5.80065268   5.85166931   5.85167014
   6.09710646   6.23257259   6.23257281   6.26799334   6.73828503
   6.84817888   6.84817914   6.91016603   6.9101676    7.00593342
   7.31447379   7.31447412   7.33557146   7.86009507   7.86009621
   8.01567494   8.72944941   8.72945171   9.00078718  16.31766684
  16.35107539  16.35107552  16.37779099  16.43514144  16.44040652
  16.44040656  16.62646597  20.11199692  20.13605544  20.13605551
  20.42594743  20.42594755  27.45502804  27.45503018  28.17723888
  31.10643625  34.37665395  34.37665404  34.51495405  44.60810427
  44.6081064   44.66337402  44.85484992  44.85485431  78.12345712
 139.4172357  139.4172375  139.93164174 152.845809  ]
   3 ( 0.000  0.500  0.500)   [-4.84909844e+01 -1.99562702e+01 -3.20953639e+00 -1.73516965e+00
 -1.73366378e+00 -1.73366378e+00 -6.87940053e-01 -9.20252753e-02
  1.84913371e-02  1.84913373e-02] [  0.83016523   0.88683919   1.03923154   1.27649891   1.27649891
   1.51627299   1.55117306   1.70311107   1.70311116   1.81290651
   1.99317668   1.99317674   2.02444363   2.1101958    2.11019582
   2.20540842   2.28137785   2.45845116   2.45845116   2.50461654
   2.78100401   2.87077824   2.93037108   2.93570928   3.09107438
   3.21452775   3.28316897   3.283169     3.47374381   3.47374387
   4.09725828   4.09725833   4.552414     4.60948458   5.58456047
   5.58456048   5.64609309   5.82555603   5.82555603   5.96641796
   5.97659949   6.16642974   6.19874891   6.41995812   6.42690141
   6.54413761   6.54413761   6.69564556   6.83834667   6.83834672
   7.76427864   7.76427866   7.80691296   7.91226162   7.96231733
   7.96231733   8.43163976   8.98288157   9.66315408  16.30699897
  16.32059932  16.38194805  16.4075493   16.4075493   16.4181972
  16.4181972   18.52159608  19.92133953  19.92133954  19.97162773
  20.24018312  20.2619152   27.83169935  27.86462143  27.86462144
  31.69547493  34.49527585  34.49527585  34.55061678  44.57684012
  44.57850604  44.57850604  44.87367151  45.00637687  78.12682385
 139.71678493 139.72434595 139.72434595 153.36222522]
   4 ( 0.500  0.000  0.000)   [-48.49098478 -19.95625341  -3.20966149  -1.73570551  -1.7328341
  -1.73283309  -0.6982547   -0.11162456   0.04860263   0.04861012] [  0.79813093   1.0219976    1.12684132   1.12684258   1.31641111
   1.39337531   1.39337642   1.61986984   1.70469834   1.70469919
   1.80733191   1.80733381   2.15770619   2.23519534   2.32006475
   2.32006577   2.48117145   2.56638745   2.56638789   2.57579969
   2.78560705   2.78560739   2.88704296   2.98032668   3.1030721
   3.10307263   3.24214265   3.32002898   3.32002927   3.54727606
   3.54727636   4.28565716   4.35338856   4.35338951   5.02261984
   5.43237459   5.43237533   5.80065285   5.85166931   5.85167014
   6.09710646   6.23257256   6.23257299   6.26799335   6.73828582
   6.84817907   6.84817909   6.91016597   6.91016778   7.00593347
   7.31447393   7.31447404   7.33557145   7.86009506   7.86009618
   8.01567494   8.72944941   8.72945177   9.00078722  16.31766684
  16.3510754   16.35107553  16.37779099  16.43514144  16.44040652
  16.44040657  16.62646646  20.11199692  20.13605544  20.13605551
  20.42594749  20.42594754  27.45502803  27.45503019  28.17723892
  31.10643626  34.37665396  34.37665403  34.51495405  44.60810427
  44.6081064   44.66337402  44.85484992  44.85485432  78.12345712
 139.4172357  139.4172375  139.93164172 152.845809  ]
   5 ( 0.500  0.000  0.500)   [-4.84909844e+01 -1.99562702e+01 -3.20953639e+00 -1.73517108e+00
 -1.73366378e+00 -1.73366225e+00 -6.87939601e-01 -9.20257134e-02
  1.84921051e-02  1.85042006e-02] [  0.83016396   0.88683896   1.03921502   1.27649689   1.27650302
   1.51627427   1.55117202   1.70310978   1.70311152   1.81290635
   1.99317767   1.99317833   2.02444343   2.11019617   2.11019665
   2.20540881   2.28137785   2.45845109   2.45845218   2.50461593
   2.78100472   2.87077745   2.93037076   2.93570881   3.09107306
   3.21452671   3.28316918   3.28316936   3.47374363   3.47374386
   4.09725878   4.09725895   4.55241401   4.60948418   5.58456047
   5.58456048   5.64609314   5.82555404   5.82555565   5.96641877
   5.97660047   6.16643007   6.19874887   6.41995822   6.42690409
   6.5441374    6.54413956   6.6956477    6.83834496   6.83834598
   7.76427869   7.76428062   7.806911     7.91226382   7.96231729
   7.96231758   8.43163924   8.98287936   9.6631809   16.30699898
  16.32059932  16.38194791  16.40754929  16.4075493   16.4181972
  16.41819734  18.52165328  19.92133934  19.92133953  19.97162793
  20.24018336  20.26191785  27.83170267  27.86461807  27.86462145
  31.69550832  34.49527586  34.49527597  34.55061668  44.57683675
  44.57850604  44.57850941  44.87367969  45.00637346  78.1268241
 139.71678764 139.72434323 139.72434595 153.36226123]
   6 ( 0.500  0.500  0.000)   [-4.84909844e+01 -1.99562702e+01 -3.20953639e+00 -1.73517108e+00
 -1.73366378e+00 -1.73366225e+00 -6.87939601e-01 -9.20257134e-02
  1.84921051e-02  1.85042006e-02] [  0.83016396   0.88683896   1.03921502   1.27649689   1.27650302
   1.51627427   1.55117202   1.70310978   1.70311151   1.81290635
   1.99317767   1.99317832   2.02444343   2.11019617   2.11019665
   2.20540881   2.28137785   2.45845109   2.45845218   2.50461601
   2.78100493   2.87077744   2.93037076   2.9357088    3.0910731
   3.21452671   3.28316918   3.28316936   3.47374363   3.47374386
   4.09725875   4.0972589    4.55241558   4.60948413   5.58456047
   5.58456048   5.64609314   5.82555404   5.82555564   5.96641877
   5.97660098   6.16643005   6.19874887   6.41995822   6.42690498
   6.5441374    6.54413956   6.6956477    6.83834494   6.83834597
   7.76427869   7.76428062   7.806911     7.91226388   7.96231729
   7.96231758   8.43163924   8.98287934   9.66318408  16.30699898
  16.32059932  16.38194791  16.40754929  16.4075493   16.4181972
  16.41819734  18.52165479  19.92133934  19.92133953  19.97162793
  20.24018336  20.2619179   27.83170267  27.86461807  27.86462145
  31.69550861  34.49527586  34.49527597  34.55061668  44.57683675
  44.57850604  44.57850941  44.8736797   45.00637346  78.1268241
 139.71678764 139.72434323 139.72434595 153.36226087]
   7 ( 0.500  0.500  0.500)   [-48.49098478 -19.95625341  -3.20966149  -1.73570551  -1.7328341
  -1.73283309  -0.6982547   -0.11162456   0.04860263   0.04861012] [  0.79813093   1.0219976    1.12684132   1.12684259   1.31641111
   1.39337531   1.39337642   1.61986974   1.70469835   1.70469918
   1.80733191   1.80733381   2.1577055    2.2351951    2.3200648
   2.32006582   2.48117072   2.56638745   2.5663879    2.57579957
   2.78560706   2.78560739   2.887043     2.98032667   3.10307212
   3.10307266   3.24214091   3.32002868   3.32002915   3.54727607
   3.54727662   4.28565722   4.35338801   4.35338952   5.02261959
   5.43237461   5.43237534   5.80065247   5.85166931   5.85167013
   6.09710646   6.23257257   6.23257303   6.26799335   6.7382843
   6.84817907   6.84817916   6.91016601   6.91016779   7.00593335
   7.31447384   7.31447393   7.33557145   7.86009503   7.86009615
   8.01567493   8.7294494    8.72945177   9.00078726  16.31766684
  16.3510754   16.35107553  16.37779099  16.43514145  16.44040651
  16.44040657  16.62646557  20.11199691  20.13605544  20.13605551
  20.42594749  20.42594755  27.45502803  27.45503019  28.17723878
  31.10643626  34.37665396  34.37665402  34.51495405  44.60810427
  44.6081064   44.66337402  44.85484992  44.85485432  78.1234571
 139.4172357  139.4172375  139.93164171 152.845809  ]
    CPU time for get_k_kpts: make_kpt ki>=kj (0,*)      2.65 sec, wall time      0.08 sec
    CPU time for get_k_kpts: make_kpt ki>=kj (1,*)      9.05 sec, wall time      0.29 sec
    CPU time for get_k_kpts: make_kpt ki>=kj (2,*)     12.27 sec, wall time      0.39 sec
    CPU time for get_k_kpts: make_kpt ki>=kj (3,*)     17.39 sec, wall time      0.55 sec
    CPU time for get_k_kpts: make_kpt ki>=kj (4,*)     21.31 sec, wall time      0.67 sec
    CPU time for get_k_kpts: make_kpt ki>=kj (5,*)     25.03 sec, wall time      0.79 sec
    CPU time for get_k_kpts: make_kpt ki>=kj (6,*)     29.40 sec, wall time      0.92 sec
    CPU time for get_k_kpts: make_kpt ki>=kj (7,*)     33.51 sec, wall time      1.05 sec
Monkhorst pack size [2 2 2] ew_eta 2.6034247657824383 ew_cut 2.7035853562553935
Ewald components = 0, -1.46905476456693, 1.32508344356495
    CPU time for get_j pass 1     14.93 sec, wall time      0.48 sec
    CPU time for get_j pass 2      6.21 sec, wall time      0.31 sec
    CPU time for vj and vk    178.42 sec, wall time      5.73 sec
Ewald components = 9.1775830151223e-178, -596.417259326552, 523.385019500803
E1 = (-248.35379554072173+3.878405699281599e-26j)  E_coul = (46.68202085796763+1.055677195386552e-19j)
cycle= 4 E= -274.704014508502  delta_E= -0.00153  |g|= 0.0671  |ddm|= 13.4
    CPU time for cycle= 4    185.53 sec, wall time      5.97 sec
diis-norm(errvec)=0.146114
diis-c [-4.05911293e-03+2.24207754e-44j -1.99232705e-02+1.70297098e-30j
  3.97193411e-05+3.88909845e-30j  2.25211775e-01+4.39563726e-30j
  7.94671777e-01-9.98770669e-30j]
HOMO = 0.0762839192531  LUMO = 0.688686723604
     k-point                  mo_energy
   0 ( 0.000  0.000  0.000)   [-48.46267093 -19.96226009  -3.20050721  -1.72290351  -1.72290351
  -1.72290272  -0.75671851   0.07627645   0.07627646   0.07628392] [  0.68868672   1.09893055   1.09893057   1.09893077   1.24065399
   1.33084943   1.33085067   1.46810238   1.46810238   1.46810298
   2.02206406   2.06154231   2.06154234   2.06154437   2.46010431
   2.46010433   2.46010435   2.65354996   2.65354999   2.70740188
   2.70740188   2.70740189   3.00556208   3.19865814   3.1986582
   3.48117849   3.48117855   3.48117858   3.50925638   3.50925662
   3.50925704   5.54190265   5.54190327   5.54190343   5.92773112
   5.98399277   5.98399294   5.98399296   6.0169502    6.01695042
   6.2386579    6.27007291   6.27007294   6.2700731    6.45673411
   6.45673413   6.45673413   7.12358025   7.12358162   7.12358177
   8.00489588   8.1134033    8.11340334   8.11340424   8.31136307
   8.31136418   9.36981317   9.36981473   9.36981494  16.30287405
  16.37655657  16.37655657  16.37655657  16.60023099  16.60023105
  16.60023121  17.49026191  20.14895091  20.14895104  20.14895104
  20.28695576  20.28695594  27.64404062  27.64404239  27.64404242
  30.62478304  34.4574507   34.45745075  34.45745082  44.68041492
  44.68041492  44.68041678  44.7031574   44.70315988  78.18815073
 139.55554607 139.55554757 139.55554758 151.83247937]
   1 (-0.000 -0.000  0.500)   [-4.84626702e+01 -1.99623114e+01 -3.20019090e+00 -1.72601093e+00
 -1.72307934e+00 -1.72307882e+00 -7.00398037e-01 -1.12614911e-01
  4.69849265e-02  4.69895697e-02] [  0.79794534   1.02123886   1.12733254   1.12733314   1.31722412
   1.39323824   1.39323899   1.61954822   1.70457606   1.70457623
   1.80757901   1.80757988   2.15801299   2.23475972   2.32010841
   2.32010864   2.48238978   2.56627283   2.56627326   2.577216
   2.78598067   2.78598072   2.88720599   2.9791788    3.10206119
   3.10206128   3.24098718   3.3202323    3.32023256   3.54826734
   3.54826813   4.28478002   4.35285139   4.35285205   5.02614151
   5.4319791    5.43197922   5.80346478   5.85330519   5.85330561
   6.09506316   6.23536755   6.23536771   6.26610706   6.73732406
   6.84779439   6.84779459   6.91034329   6.91034387   7.00608117
   7.32148304   7.32148342   7.33831634   7.85719623   7.85719675
   8.01500872   8.72789641   8.72789745   9.0012901   16.32685388
  16.36025707  16.3602572   16.38696798  16.44426798  16.44954689
  16.44954693  16.63413465  20.12555973  20.14973856  20.1497386
  20.43956869  20.43956877  27.44958172  27.44958287  28.17185398
  31.10168804  34.39732477  34.39732483  34.53516791  44.60227281
  44.60227398  44.65754535  44.84903574  44.84903816  78.14847343
 139.41123358 139.41123458 139.92564437 152.84004142]
   2 ( 0.000  0.500 -0.000)   [-4.84626702e+01 -1.99623114e+01 -3.20019090e+00 -1.72601093e+00
 -1.72307934e+00 -1.72307882e+00 -7.00398037e-01 -1.12614911e-01
  4.69849265e-02  4.69895697e-02] [  0.79794534   1.02123886   1.12733254   1.12733314   1.31722412
   1.39323824   1.39323899   1.61954822   1.70457606   1.70457623
   1.80757901   1.80757988   2.15801358   2.23475972   2.32010841
   2.32010865   2.48239055   2.56627283   2.56627326   2.577216
   2.78598067   2.78598072   2.88720599   2.9791788    3.10206119
   3.10206127   3.24098895   3.3202323    3.32023245   3.54826733
   3.54826821   4.28478002   4.35285126   4.35285186   5.02614175
   5.4319791    5.43197921   5.80346518   5.85330519   5.85330561
   6.09506316   6.23536759   6.23536769   6.26610706   6.73732562
   6.84779439   6.8477946    6.91034331   6.91034385   7.00608129
   7.32148307   7.32148332   7.33831634   7.85719623   7.85719674
   8.01500872   8.72789639   8.72789745   9.0012901   16.32685388
  16.36025707  16.3602572   16.38696798  16.44426798  16.44954688
  16.44954693  16.63413549  20.12555974  20.14973856  20.14973861
  20.43956869  20.43956878  27.44958172  27.44958287  28.17185414
  31.10168804  34.39732477  34.39732482  34.53516791  44.60227281
  44.60227398  44.65754535  44.84903573  44.84903816  78.14847345
 139.41123358 139.41123458 139.92564439 152.84004142]
   3 ( 0.000  0.500  0.500)   [-4.84626698e+01 -1.99623282e+01 -3.20006289e+00 -1.72545780e+00
 -1.72392616e+00 -1.72392616e+00 -6.90288828e-01 -9.29517850e-02
  1.70759803e-02  1.70759805e-02] [  0.83016076   0.88738651   1.03839872   1.27648298   1.27648298
   1.51582618   1.55121344   1.70352264   1.70352274   1.8127529
   1.99286544   1.9928655    2.02519546   2.11078198   2.11078199
   2.20543717   2.28220706   2.45769417   2.45769417   2.50568107
   2.78134301   2.86971298   2.93085095   2.93612669   3.08994747
   3.21393717   3.28268612   3.28268615   3.4742947    3.47429475
   4.09710656   4.0971066    4.55255847   4.60869121   5.58995977
   5.58995978   5.65145289   5.82319388   5.82319388   5.96489594
   5.98174054   6.17148898   6.19671011   6.4179306    6.42918755
   6.54244732   6.54244732   6.69477718   6.83816364   6.8381637
   7.76129347   7.76129349   7.80395353   7.90970087   7.96855466
   7.96855466   8.43796477   8.97996052   9.66241829  16.31618907
  16.32978675  16.39111774  16.41672172  16.41672172  16.4273569
  16.4273569   18.5281823   19.93510554  19.93510555  19.98537906
  20.25386008  20.27520973  27.82641083  27.85919071  27.85919072
  31.69044483  34.51592296  34.51592297  34.57114153  44.57100553
  44.57267349  44.57267349  44.86785755  45.00056069  78.15183815
 139.71078794 139.71834608 139.71834609 153.35646253]
   4 ( 0.500  0.000  0.000)   [-4.84626702e+01 -1.99623114e+01 -3.20019090e+00 -1.72601093e+00
 -1.72307934e+00 -1.72307882e+00 -7.00398037e-01 -1.12614911e-01
  4.69849266e-02  4.69895697e-02] [  0.79794534   1.02123886   1.12733254   1.12733314   1.31722413
   1.39323825   1.39323899   1.61954811   1.70457602   1.70457627
   1.80757901   1.80757988   2.15801386   2.23475945   2.32010848
   2.3201087    2.4823909    2.56627285   2.56627326   2.57721588
   2.78598068   2.78598072   2.88720599   2.97917878   3.10206127
   3.10206128   3.24098976   3.32023229   3.32023245   3.54826792
   3.54826831   4.28478009   4.35285151   4.35285233   5.0261419
   5.43197908   5.43197927   5.80346533   5.85330519   5.85330562
   6.09506316   6.23536759   6.23536784   6.26610706   6.73732634
   6.84779454   6.84779459   6.91034324   6.91034403   7.00608134
   7.3214832    7.32148325   7.33831634   7.85719622   7.85719671
   8.01500871   8.72789638   8.7278975    9.00129014  16.32685388
  16.36025707  16.3602572   16.38696798  16.44426799  16.44954689
  16.44954693  16.63413595  20.12555974  20.14973856  20.1497386
  20.43956875  20.43956876  27.44958171  27.44958288  28.17185417
  31.10168804  34.39732478  34.39732482  34.53516791  44.60227281
  44.60227398  44.65754535  44.84903573  44.84903816  78.14847345
 139.41123358 139.41123458 139.92564437 152.84004142]
   5 ( 0.500  0.000  0.500)   [-4.84626698e+01 -1.99623282e+01 -3.20006289e+00 -1.72545854e+00
 -1.72392616e+00 -1.72392538e+00 -6.90288687e-01 -9.29542057e-02
  1.70760850e-02  1.70829451e-02] [  0.83015997   0.88738621   1.03839162   1.27648254   1.27648567
   1.5158269    1.55121289   1.7035223    1.7035227    1.81275261
   1.99286566   1.99286583   2.02519511   2.11078232   2.11078241
   2.20543744   2.2822073    2.45769424   2.45769517   2.50568086
   2.7813425    2.86971298   2.93085053   2.93612667   3.08994703
   3.21393652   3.28268606   3.28268618   3.47429466   3.47429513
   4.09710634   4.09710664   4.55255672   4.60869103   5.58995956
   5.5899598    5.65145313   5.82319321   5.82319373   5.96489603
   5.98174098   6.17148915   6.19671012   6.41793061   6.42918973
   6.54244729   6.54244821   6.69477814   6.83816283   6.83816337
   7.76129347   7.76129435   7.80395266   7.90970216   7.96855462
   7.96855493   8.43796437   8.97995947   9.66244311  16.31618907
  16.32978675  16.39111761  16.41672172  16.41672172  16.42735689
  16.42735703  18.52823798  19.93510541  19.93510555  19.9853792
  20.25386022  20.27521239  27.82641263  27.8591889   27.85919073
  31.69047783  34.51592297  34.51592304  34.57114146  44.57100367
  44.57267349  44.57267535  44.8678643   45.00055882  78.1518384
 139.71078945 139.71834458 139.71834609 153.35649847]
   6 ( 0.500  0.500  0.000)   [-4.84626698e+01 -1.99623282e+01 -3.20006289e+00 -1.72545854e+00
 -1.72392616e+00 -1.72392538e+00 -6.90288687e-01 -9.29542057e-02
  1.70760850e-02  1.70829451e-02] [  0.83015997   0.88738621   1.03839162   1.27648254   1.27648567
   1.5158269    1.55121289   1.7035223    1.7035227    1.81275261
   1.99286566   1.99286583   2.02519511   2.11078232   2.11078242
   2.20543745   2.2822073    2.45769424   2.45769517   2.5056809
   2.78134265   2.86971298   2.93085052   2.93612666   3.08994705
   3.21393652   3.28268606   3.28268618   3.47429466   3.47429513
   4.09710629   4.0971066    4.55255775   4.60869098   5.58995956
   5.5899598    5.65145313   5.82319321   5.82319373   5.96489603
   5.9817413    6.17148913   6.19671012   6.41793061   6.42919025
   6.54244729   6.54244821   6.69477814   6.83816281   6.83816336
   7.76129347   7.76129435   7.80395266   7.9097022    7.96855462
   7.96855493   8.43796437   8.97995945   9.66244502  16.31618907
  16.32978675  16.39111761  16.41672172  16.41672172  16.42735689
  16.42735703  18.52823855  19.93510541  19.93510555  19.9853792
  20.25386021  20.27521241  27.82641263  27.8591889   27.85919073
  31.69047784  34.51592297  34.51592304  34.57114146  44.57100367
  44.57267349  44.57267535  44.86786428  45.00055882  78.15183839
 139.71078945 139.71834458 139.71834609 153.35649806]
   7 ( 0.500  0.500  0.500)   [-4.84626702e+01 -1.99623114e+01 -3.20019090e+00 -1.72601093e+00
 -1.72307934e+00 -1.72307882e+00 -7.00398037e-01 -1.12614911e-01
  4.69849266e-02  4.69895697e-02] [  0.79794534   1.02123886   1.12733254   1.12733314   1.31722412
   1.39323824   1.39323899   1.61954801   1.70457603   1.70457626
   1.80757901   1.80757988   2.1580132    2.2347592    2.32010852
   2.32010875   2.4823902    2.56627285   2.56627326   2.57721577
   2.78598067   2.78598073   2.88720604   2.97917877   3.10206129
   3.1020613    3.24098809   3.32023199   3.32023233   3.54826796
   3.54826854   4.28478015   4.35285096   4.35285233   5.02614165
   5.4319791    5.43197927   5.80346497   5.85330519   5.85330561
   6.09506316   6.2353676    6.23536787   6.26610707   6.73732488
   6.84779455   6.84779464   6.91034329   6.91034405   7.00608123
   7.32148307   7.32148317   7.33831633   7.8571962    7.85719668
   8.01500871   8.72789638   8.72789751   9.00129018  16.32685388
[...]
   5.98162138   6.17137387   6.19665293   6.41787388   6.42903967
   6.54238353   6.54238353   6.69470387   6.83806285   6.8380629
   7.76116964   7.76116967   7.80382824   7.90956271   7.96835229
   7.96835229   8.43775692   8.97984474   9.66225818  16.31595086
  16.32954816  16.39087993  16.41648371  16.41648371  16.42711942
  16.42711942  18.52799107  19.93469085  19.93469085  19.98496488
  20.25344898  20.274809    27.82613642  27.85891666  27.85891667
  31.69016077  34.5152495   34.5152495   34.57046981  44.57069103
  44.5723609   44.5723609   44.86754629  45.00024716  78.15099693
 139.71062732 139.71818396 139.71818396 153.35637332]
   4 ( 0.500  0.000  0.000)   [-4.84636378e+01 -1.99625926e+01 -3.20041249e+00 -1.72628262e+00
 -1.72335302e+00 -1.72335302e+00 -7.00652054e-01 -1.12526820e-01
  4.70475740e-02  4.70476621e-02] [  0.79785704   1.02122726   1.12732455   1.12732456   1.31724155
   1.39322808   1.39322809   1.61945756   1.70456035   1.7045604
   1.80755903   1.80755905   2.15801705   2.2347268    2.32010724
   2.32010724   2.48238181   2.56625408   2.5662541    2.5771905
   2.78597756   2.78597757   2.88722697   2.97909529   3.10204295
   3.10204299   3.24095662   3.32021189   3.32021207   3.54825465
   3.54825506   4.28470746   4.35284081   4.35284137   5.02604591
   5.43188803   5.43188806   5.8033563    5.85320042   5.85320042
   6.095008     6.23526619   6.23526626   6.26604595   6.7372458
   6.84772267   6.84772276   6.91026583   6.91026592   7.00598681
   7.32125396   7.32125414   7.33809998   7.85707033   7.85707036
   8.01486162   8.72776642   8.72776645   9.00110273  16.32661528
  16.3600191   16.3600191   16.38672996  16.44403043  16.4493094
  16.44930941  16.63393248  20.1251509   20.1493266   20.1493266
  20.43915906  20.43915909  27.44930817  27.44930818  28.17158109
  31.1013915   34.39665024  34.39665025  34.53450082  44.60196022
  44.60196024  44.65723233  44.84872434  44.84872438  78.14763216
 139.41107228 139.4110723  139.92548284 152.83995181]
   5 ( 0.500  0.000  0.500)   [-4.84636374e+01 -1.99626093e+01 -3.20028461e+00 -1.72573133e+00
 -1.72419943e+00 -1.72419943e+00 -6.90590066e-01 -9.28517293e-02
  1.71422708e-02  1.71423778e-02] [  0.8302179    0.8873559    1.0383676    1.27644966   1.27644971
   1.51566403   1.55119252   1.7035329    1.70353293   1.81275713
   1.99285829   1.99285831   2.02517699   2.11077      2.11077
   2.2054523    2.28221091   2.45767829   2.45767831   2.50566327
   2.78130936   2.86967998   2.93082777   2.93611041   3.08985482
   3.21391449   3.28267047   3.28267047   3.47428504   3.47428507
   4.0971037    4.09710375   4.55249525   4.60866004   5.58983264
   5.58983264   5.65132549   5.82311717   5.82311718   5.96478755
   5.98162186   6.17137387   6.19665293   6.41787389   6.42904141
   6.54238351   6.54238353   6.69470385   6.8380629    6.83806292
   7.76116964   7.76116966   7.80382825   7.90956295   7.96835228
   7.96835229   8.43775692   8.97984477   9.66228192  16.31595086
  16.32954816  16.39087993  16.41648371  16.41648371  16.42711942
  16.42711942  18.52804589  19.93469085  19.93469085  19.98496488
  20.25344898  20.27481175  27.82613639  27.85891666  27.8589167
  31.69019347  34.5152495   34.5152495   34.57046981  44.57069106
  44.57236087  44.5723609   44.86755129  45.00024719  78.15099717
 139.7106273  139.71818396 139.71818398 153.35640921]
   6 ( 0.500  0.500  0.000)   [-4.84636374e+01 -1.99626093e+01 -3.20028461e+00 -1.72573133e+00
 -1.72419943e+00 -1.72419943e+00 -6.90590066e-01 -9.28517293e-02
  1.71422708e-02  1.71423778e-02] [  0.8302179    0.8873559    1.0383676    1.27644966   1.27644971
   1.51566403   1.55119252   1.70353289   1.70353293   1.81275713
   1.99285829   1.99285831   2.02517699   2.11077      2.11077
   2.20545231   2.28221091   2.45767829   2.45767831   2.50566331
   2.78130949   2.86967998   2.93082776   2.9361104    3.08985484
   3.21391449   3.28267047   3.28267047   3.47428504   3.47428507
   4.09710365   4.09710372   4.55249617   4.60865998   5.58983263
   5.58983264   5.65132549   5.82311717   5.82311718   5.96478756
   5.98162215   6.17137385   6.19665293   6.41787389   6.42904185
   6.54238351   6.54238353   6.69470385   6.83806288   6.8380629
   7.76116964   7.76116966   7.80382825   7.90956298   7.96835228
   7.96835229   8.43775692   8.97984475   9.66228356  16.31595086
  16.32954816  16.39087993  16.41648371  16.41648371  16.42711942
  16.42711942  18.52804626  19.93469085  19.93469085  19.98496488
  20.25344898  20.27481176  27.82613639  27.85891666  27.85891669
  31.69019342  34.5152495   34.5152495   34.57046981  44.57069106
  44.57236087  44.5723609   44.86755126  45.00024719  78.15099717
 139.7106273  139.71818396 139.71818398 153.35640879]
   7 ( 0.500  0.500  0.500)   [-4.84636378e+01 -1.99625926e+01 -3.20041249e+00 -1.72628262e+00
 -1.72335302e+00 -1.72335302e+00 -7.00652054e-01 -1.12526821e-01
  4.70475741e-02  4.70476621e-02] [  0.79785704   1.02122726   1.12732455   1.12732456   1.31724155
   1.39322808   1.39322809   1.61945746   1.70456036   1.70456039
   1.80755903   1.80755905   2.15801639   2.23472655   2.32010729
   2.32010729   2.48238111   2.56625408   2.5662541    2.57719039
   2.78597756   2.78597757   2.88722701   2.97909528   3.10204297
   3.10204301   3.24095496   3.32021159   3.32021195   3.5482547
   3.5482553    4.28470751   4.35284025   4.35284137   5.02604566
   5.43188804   5.43188807   5.80335593   5.85320042   5.85320043
   6.095008     6.23526619   6.23526631   6.26604595   6.73724435
   6.84772269   6.8477228    6.91026587   6.91026595   7.0059867
   7.32125381   7.32125408   7.33809997   7.85707031   7.85707033
   8.01486162   8.72776641   8.72776645   9.00110277  16.32661528
  16.3600191   16.3600191   16.38672996  16.44403043  16.4493094
  16.44930941  16.63393163  20.1251509   20.1493266   20.1493266
  20.43915906  20.4391591   27.44930817  27.44930818  28.17158096
  31.1013915   34.39665022  34.39665025  34.53450082  44.60196022
  44.60196024  44.65723233  44.84872434  44.84872438  78.14763214
 139.41107228 139.4110723  139.92548283 152.83995181]
    CPU time for get_k_kpts: make_kpt ki>=kj (0,*)      3.32 sec, wall time      0.12 sec
    CPU time for get_k_kpts: make_kpt ki>=kj (1,*)      8.05 sec, wall time      0.26 sec
    CPU time for get_k_kpts: make_kpt ki>=kj (2,*)     11.99 sec, wall time      0.38 sec
    CPU time for get_k_kpts: make_kpt ki>=kj (3,*)     16.20 sec, wall time      0.51 sec
    CPU time for get_k_kpts: make_kpt ki>=kj (4,*)     19.43 sec, wall time      0.61 sec
    CPU time for get_k_kpts: make_kpt ki>=kj (5,*)     24.55 sec, wall time      0.77 sec
    CPU time for get_k_kpts: make_kpt ki>=kj (6,*)     28.16 sec, wall time      0.88 sec
    CPU time for get_k_kpts: make_kpt ki>=kj (7,*)     30.91 sec, wall time      0.98 sec
Monkhorst pack size [2 2 2] ew_eta 2.6034247657824383 ew_cut 2.7035853562553935
Ewald components = 0, -1.46905476456693, 1.32508344356495
    CPU time for get_j pass 1     16.77 sec, wall time      0.58 sec
    CPU time for get_j pass 2      5.82 sec, wall time      0.29 sec
    CPU time for vj and vk    171.15 sec, wall time      5.57 sec
Ewald components = 9.1775830151223e-178, -596.417259326552, 523.385019500803
E1 = (-248.33164996432495+3.9657266487603116e-26j)  E_coul = (46.65983594541372+6.087262502226543e-22j)
cycle= 8 E= -274.70405384466  delta_E= -8.96e-09  |g|= 4.76e-05  |ddm|= 0.0336
    CPU time for cycle= 8    177.85 sec, wall time      5.81 sec
HOMO = 0.0763287549899  LUMO = 0.687827629498
     k-point                  mo_energy
   0 ( 0.000  0.000  0.000)   [-48.46363825 -19.96253303  -3.20072535  -1.72317861  -1.72317861
  -1.72317861  -0.75624477   0.07632869   0.07632875   0.07632875] [  0.68782763   1.09894347   1.09894348   1.0989435    1.24070237
   1.33083114   1.33083114   1.46808268   1.46808268   1.46808268
   2.02205829   2.0615047    2.06150471   2.06150474   2.46009606
   2.46009608   2.4600961    2.65355226   2.65355226   2.70741729
   2.70741729   2.70741729   3.00540197   3.19863038   3.19863038
   3.4811512    3.48115124   3.48115129   3.50923735   3.5092375
   3.50923761   5.54184039   5.54184055   5.54184061   5.92759986
   5.98386986   5.98386987   5.98386988   6.01682668   6.01682668
   6.23860414   6.26995373   6.26995375   6.26995376   6.45668478
   6.45668478   6.45668478   7.1234276    7.12342881   7.123429
   8.00471583   8.11328795   8.11328796   8.11328798   8.3112487
   8.31124871   9.36974927   9.36975092   9.36975123  16.30263384
  16.37631696  16.37631696  16.37631696  16.59999455  16.59999461
  16.59999462  17.49006676  20.14853729  20.14853729  20.14853729
  20.28654482  20.28654482  27.64377589  27.64377593  27.64377593
  30.62450042  34.45677839  34.45677843  34.45677844  44.68011153
  44.68011154  44.68011154  44.70285479  44.70285481  78.18730916
 139.55539225 139.55539225 139.55539226 151.83239502]
   1 (-0.000 -0.000  0.500)   [-4.84636375e+01 -1.99625842e+01 -3.20041383e+00 -1.72628421e+00
 -1.72335462e+00 -1.72335462e+00 -7.00648399e-01 -1.12524431e-01
  4.70502402e-02  4.70502776e-02] [  0.79785851   1.02122943   1.12732463   1.12732464   1.31724108
   1.39322856   1.39322856   1.61945853   1.70456093   1.70456097
   1.80755948   1.80755948   2.15801544   2.23472761   2.32010717
   2.32010717   2.48237973   2.56625492   2.56625494   2.57718956
   2.78597723   2.78597724   2.8872261    2.97909814   3.10204526
   3.10204532   3.24095638   3.32021257   3.32021282   3.54825333
   3.5482541    4.28470955   4.35284178   4.35284256   5.02604553
   5.43189154   5.43189159   5.80335649   5.85320233   5.85320234
   6.09501348   6.2352669    6.23526706   6.26605119   6.73724778
   6.84772615   6.84772631   6.91026896   6.91026911   7.00598956
   7.32125384   7.32125405   7.33810261   7.85707718   7.8570772
   8.01486678   8.727772     8.72777206   9.00110639  16.32661369
  16.36001752  16.36001752  16.38672838  16.44402889  16.44930784
  16.44930785  16.63393     20.12514978  20.1493255   20.1493255
  20.43915791  20.43915796  27.44931654  27.44931656  28.17158921
  31.10139978  34.39664978  34.3966498   34.53450051  44.60196924
  44.60196925  44.65724134  44.84873334  44.84873337  78.14763212
 139.41107918 139.41107919 139.92548973 152.83995809]
   2 ( 0.000  0.500 -0.000)   [-4.84636375e+01 -1.99625842e+01 -3.20041383e+00 -1.72628421e+00
 -1.72335462e+00 -1.72335462e+00 -7.00648399e-01 -1.12524431e-01
  4.70502402e-02  4.70502776e-02] [  0.79785851   1.02122943   1.12732463   1.12732464   1.31724109
   1.39322856   1.39322856   1.61945853   1.70456093   1.70456097
   1.80755948   1.80755948   2.15801603   2.23472761   2.32010717
   2.32010717   2.4823805    2.56625493   2.56625494   2.57718956
   2.78597723   2.78597724   2.8872261    2.97909814   3.10204527
   3.10204531   3.24095815   3.32021257   3.32021272   3.54825333
   3.54825418   4.28470955   4.35284176   4.35284225   5.02604577
   5.43189155   5.43189159   5.80335689   5.85320233   5.85320234
   6.09501348   6.23526689   6.23526708   6.26605119   6.73724935
   6.84772615   6.84772631   6.91026896   6.9102691    7.00598968
   7.32125385   7.32125397   7.33810261   7.85707718   7.85707719
   8.01486678   8.72777201   8.72777204   9.00110639  16.32661369
  16.36001752  16.36001752  16.38672838  16.44402889  16.44930784
  16.44930785  16.63393084  20.12514979  20.1493255   20.1493255
  20.43915791  20.43915796  27.44931654  27.44931656  28.17158937
  31.10139978  34.39664978  34.39664979  34.53450051  44.60196924
  44.60196925  44.65724134  44.84873334  44.84873336  78.14763214
 139.41107918 139.41107919 139.92548975 152.83995809]
   3 ( 0.000  0.500  0.500)   [-4.84636372e+01 -1.99626008e+01 -3.20028595e+00 -1.72573292e+00
 -1.72420103e+00 -1.72420103e+00 -6.90586041e-01 -9.28498513e-02
  1.71447601e-02  1.71447602e-02] [  0.83021791   0.88735693   1.03836994   1.27645111   1.27645111
   1.51566572   1.55119288   1.7035321    1.70353219   1.8127568
   1.99285903   1.99285909   2.02517664   2.11076968   2.11076969
   2.20545124   2.28220956   2.45767972   2.45767972   2.50566343
   2.78131085   2.86968271   2.93082805   2.93611131   3.08985753
   3.21391563   3.28267168   3.2826717    3.47428478   3.47428484
   4.09710392   4.09710396   4.55249922   4.60866246   5.58983119
   5.5898312    5.65132407   5.82312249   5.82312249   5.96479218
   5.98162003   6.17137251   6.19665836   6.41787928   6.42904106
   6.54238864   6.54238864   6.69470842   6.83806671   6.83806676
   7.76117646   7.76117649   7.80383509   7.90956899   7.96835239
   7.96835239   8.43775689   8.97985126   9.66226261  16.31594927
  16.32954656  16.39087836  16.41648213  16.41648213  16.42711786
  16.42711786  18.5279903   19.93468972  19.93468973  19.98496375
  20.25344788  20.27480795  27.8261447   27.85892501  27.85892502
  31.69016903  34.51524903  34.51524904  34.57046939  44.57070006
  44.57236991  44.57236991  44.86755527  45.00025616  78.15099691
 139.71063421 139.71819086 139.71819086 153.35637959]
   4 ( 0.500  0.000  0.000)   [-4.84636375e+01 -1.99625842e+01 -3.20041383e+00 -1.72628421e+00
 -1.72335462e+00 -1.72335462e+00 -7.00648399e-01 -1.12524431e-01
  4.70502402e-02  4.70502776e-02] [  0.79785851   1.02122943   1.12732464   1.12732464   1.31724109
   1.39322855   1.39322856   1.61945842   1.70456093   1.70456097
   1.80755948   1.80755949   2.1580163    2.23472734   2.32010723
   2.32010723   2.48238085   2.56625493   2.56625495   2.57718944
   2.78597723   2.78597725   2.88722611   2.97909813   3.10204531
   3.10204535   3.24095895   3.32021254   3.32021273   3.54825389
   3.5482543    4.28470962   4.35284209   4.35284265   5.02604591
   5.43189157   5.4318916    5.80335704   5.85320233   5.85320234
   6.09501348   6.23526702   6.23526709   6.26605119   6.73725006
   6.84772625   6.84772635   6.91026904   6.91026914   7.00598973
   7.32125385   7.32125403   7.33810261   7.85707715   7.85707717
   8.01486678   8.72777203   8.72777207   9.00110644  16.32661369
  16.36001752  16.36001752  16.38672838  16.44402889  16.44930785
  16.44930785  16.63393129  20.12514979  20.1493255   20.1493255
  20.43915794  20.43915797  27.44931655  27.44931655  28.1715894
  31.10139978  34.39664978  34.39664979  34.53450051  44.60196924
  44.60196925  44.65724134  44.84873335  44.84873336  78.14763214
 139.41107919 139.41107919 139.92548973 152.83995809]
   5 ( 0.500  0.000  0.500)   [-4.84636372e+01 -1.99626008e+01 -3.20028595e+00 -1.72573292e+00
 -1.72420103e+00 -1.72420103e+00 -6.90586040e-01 -9.28498234e-02
  1.71447109e-02  1.71447600e-02] [  0.83021792   0.88735693   1.03836998   1.27645109   1.27645111
   1.51566571   1.55119288   1.70353213   1.70353216   1.8127568
   1.99285905   1.99285907   2.02517664   2.11076968   2.11076969
   2.20545124   2.28220956   2.4576797    2.45767971   2.50566302
   2.78131005   2.86968271   2.93082804   2.93611131   3.08985738
   3.21391563   3.28267169   3.28267169   3.4742848    3.47428482
   4.09710396   4.09710401   4.55249679   4.60866248   5.5898312
   5.5898312    5.65132407   5.82312249   5.8231225    5.96479218
   5.98162051   6.17137252   6.19665836   6.41787929   6.4290428
   6.54238864   6.54238864   6.6947084    6.83806675   6.83806677
   7.76117647   7.76117648   7.8038351    7.90956924   7.96835238
   7.96835239   8.43775689   8.97985127   9.66228634  16.31594927
  16.32954656  16.39087836  16.41648213  16.41648213  16.42711786
  16.42711786  18.52804511  19.93468973  19.93468973  19.98496375
  20.25344788  20.2748107   27.82614469  27.85892502  27.85892503
  31.69020172  34.51524904  34.51524904  34.57046939  44.57070007
  44.5723699   44.57236991  44.86756028  45.00025618  78.15099715
 139.71063419 139.71819086 139.71819087 153.35641549]
   6 ( 0.500  0.500  0.000)   [-4.84636372e+01 -1.99626008e+01 -3.20028595e+00 -1.72573292e+00
 -1.72420103e+00 -1.72420103e+00 -6.90586040e-01 -9.28498234e-02
  1.71447109e-02  1.71447600e-02] [  0.83021792   0.88735693   1.03836998   1.27645109   1.27645111
   1.51566571   1.55119288   1.70353213   1.70353216   1.8127568
   1.99285905   1.99285907   2.02517664   2.11076968   2.11076969
   2.20545124   2.28220956   2.4576797    2.45767971   2.50566307
   2.78131019   2.86968271   2.93082804   2.9361113    3.0898574
   3.21391562   3.28267169   3.28267169   3.4742848    3.47428482
   4.09710391   4.09710398   4.5524977    4.60866243   5.5898312
   5.5898312    5.65132407   5.82312249   5.8231225    5.96479218
   5.9816208    6.1713725    6.19665836   6.41787929   6.42904323
   6.54238863   6.54238864   6.6947084    6.83806673   6.83806676
   7.76117647   7.76117648   7.8038351    7.90956928   7.96835238
   7.96835239   8.43775689   8.97985125   9.66228797  16.31594927
  16.32954656  16.39087836  16.41648213  16.41648213  16.42711786
  16.42711786  18.52804548  19.93468972  19.93468973  19.98496375
  20.25344788  20.27481071  27.82614469  27.85892502  27.85892503
  31.69020167  34.51524904  34.51524904  34.57046939  44.57070007
  44.5723699   44.57236991  44.86756025  45.00025618  78.15099715
 139.71063419 139.71819086 139.71819087 153.35641506]
   7 ( 0.500  0.500  0.500)   [-4.84636375e+01 -1.99625842e+01 -3.20041383e+00 -1.72628421e+00
 -1.72335462e+00 -1.72335462e+00 -7.00648400e-01 -1.12524431e-01
  4.70502402e-02  4.70502776e-02] [  0.79785851   1.02122943   1.12732464   1.12732464   1.31724108
   1.39322856   1.39322856   1.61945832   1.70456094   1.70456096
   1.80755948   1.80755948   2.15801564   2.23472709   2.32010728
   2.32010728   2.48238014   2.56625494   2.56625495   2.57718932
   2.78597724   2.78597725   2.88722615   2.97909811   3.10204533
   3.10204537   3.2409573    3.32021224   3.3202126    3.54825393
   3.54825453   4.28470968   4.35284153   4.35284266   5.02604567
   5.43189158   5.43189161   5.80335668   5.85320233   5.85320234
   6.09501348   6.23526702   6.23526714   6.2660512    6.73724861
   6.84772628   6.84772638   6.91026908   6.91026916   7.00598962
   7.3212537    7.32125397   7.3381026    7.85707713   7.85707715
   8.01486678   8.72777202   8.72777207   9.00110647  16.32661369
  16.36001752  16.36001752  16.38672838  16.4440289   16.44930784
  16.44930786  16.63393044  20.12514978  20.1493255   20.1493255
  20.43915795  20.43915798  27.44931655  27.44931656  28.17158927
  31.10139979  34.39664976  34.39664979  34.53450051  44.60196924
  44.60196925  44.65724134  44.84873335  44.84873336  78.14763212
 139.41107919 139.41107919 139.92548972 152.83995809]
    CPU time for get_k_kpts: make_kpt ki>=kj (0,*)      3.18 sec, wall time      0.10 sec
    CPU time for get_k_kpts: make_kpt ki>=kj (1,*)      9.95 sec, wall time      0.32 sec
    CPU time for get_k_kpts: make_kpt ki>=kj (2,*)     11.69 sec, wall time      0.37 sec
    CPU time for get_k_kpts: make_kpt ki>=kj (3,*)     17.54 sec, wall time      0.56 sec
    CPU time for get_k_kpts: make_kpt ki>=kj (4,*)     19.62 sec, wall time      0.62 sec
    CPU time for get_k_kpts: make_kpt ki>=kj (5,*)     25.58 sec, wall time      0.81 sec
    CPU time for get_k_kpts: make_kpt ki>=kj (6,*)     31.08 sec, wall time      0.98 sec
    CPU time for get_k_kpts: make_kpt ki>=kj (7,*)     33.64 sec, wall time      1.06 sec
Monkhorst pack size [2 2 2] ew_eta 2.6034247657824383 ew_cut 2.7035853562553935
Ewald components = 0, -1.46905476456693, 1.32508344356495
    CPU time for get_j pass 1     16.20 sec, wall time      0.53 sec
    CPU time for get_j pass 2      6.20 sec, wall time      0.28 sec
    CPU time for vj and vk    180.88 sec, wall time      5.83 sec
Ewald components = 9.1775830151223e-178, -596.417259326552, 523.385019500803
E1 = (-248.33162375135612+3.979152867188672e-26j)  E_coul = (46.65980973235546+3.616919844667314e-22j)
Extra cycle  E= -274.704053844749  delta_E= -8.94e-11  |g|= 2e-05  |ddm|= 0.0114
    CPU time for scf_cycle 223357.63 sec, wall time   7474.39 sec
    CPU time for SCF 223357.66 sec, wall time   7474.43 sec
converged SCF energy = -274.704053844749
