#INFO: **** input file is /burg/ccce/users/eav2136/projects/core_level_spectroscopy/01_peommp2_cbe/meanfield.py ****
#!/usr/bin/env python
import json
from pyscf.pbc import gto, scf
from pyscf.pbc.tools import lattice, pyscf_ase
from pyscf.pbc.scf import chkfile
from fileutils import load, dump
import sys

material = load("data/{}".format(sys.argv[1]))
# Create Cell
cell = gto.Cell()
ase_atom = lattice.get_ase_atom(material["formula"])
cell.atom = pyscf_ase.ase_atoms_to_pyscf(ase_atom)
cell.a = ase_atom.cell[:]
cell.unit = "B"
cell.basis = material["basis"]
cell.exp_to_discard = material["exp_to_discard"]
cell.verbose = 7
cell.build()

# Mean Field
kdensity = material["kdensity"]
kmesh = [kdensity, kdensity, kdensity]
kpts = cell.make_kpts(kmesh, scaled_center=material["vb_scaled_center"])
mymf = scf.KRHF(cell, kpts=kpts, exxdiv="ewald")
mymf.chkfile = "data/{}".format(material["chk"])
mymf = mymf.density_fit()
mymf.with_df._cderi_to_save = "data/{}".format(material["cderi"])
ekrhf = mymf.kernel()
convergence = mymf.converged
mymf_data = dict([("ekrhf", float(ekrhf)),
                  ("convergence", bool(convergence))])
dump(mymf_data, "data/{}".format(material["ekrhf"]))
#INFO: ******************** input file end ********************


System: uname_result(system='Linux', node='g107', release='4.18.0-193.el8.x86_64', version='#1 SMP Fri Mar 27 14:35:58 UTC 2020', machine='x86_64')  Threads 32
Python 3.10.12 (main, Jul 29 2023, 11:27:27) [GCC 13.2.0]
numpy 1.25.1  scipy 1.10.1
Date: Fri Dec 29 11:18:13 2023
PySCF version 2.0.1
PySCF path  /burg/berkelbach/users/eav2136/builds/pyscf/projected-cvs/pyscf
GIT ORIG_HEAD 0bfbc692adf3ea63b8a509210433219cd1c472a2
GIT HEAD (branch projected-cvs) e14caaa2dddc538b9be2d86f01e5b456fc92da36

[ENV] PYSCF_TMPDIR /burg/ccce/users/eav2136/projects/core_level_spectroscopy/01_peommp2_cbe/tmp
[ENV] PYSCF_MAX_MEMORY 700000
[CONFIG] DEBUG = False
[CONFIG] MAX_MEMORY = 700000
[CONFIG] TMPDIR = /burg/ccce/users/eav2136/projects/core_level_spectroscopy/01_peommp2_cbe/tmp
[CONFIG] UNIT = angstrom
[CONFIG] VERBOSE = 3
[CONFIG] conf_file = None
[INPUT] verbose = 7
[INPUT] max_memory = 700000 
[INPUT] num. atoms = 2
[INPUT] num. electrons = 28
[INPUT] charge = 0
[INPUT] spin (= nelec alpha-beta = 2S) = 0
[INPUT] symmetry False subgroup None
[INPUT] Mole.unit = B
[INPUT]  1 Si     0.000000000000   0.000000000000   0.000000000000 AA    0.000000000000   0.000000000000   0.000000000000 Bohr
[INPUT]  2 Si     1.357749902598   1.357749902598   1.357749902598 AA    2.565775461565   2.565775461565   2.565775461565 Bohr
[INPUT] ---------------- BASIS SET ---------------- 
[INPUT] l, kappa, [nprim/nctr], expnt,             c_1 c_2 ...
[INPUT] Si
[INPUT] 0    0    [13   /3   ]  254900            6.25101e-05 -1.6637e-05 4.26257e-06
                                38190             0.000485553 -0.00012931 3.31062e-05
                                8690              0.00254516 -0.000678828 0.000174015
                                2462              0.0105866 -0.00284117 0.000727574
                                804.8             0.0368787 -0.0100551 0.00258333
                                291.3             0.107479 -0.0305774 0.00786354
                                113.6             0.247936 -0.0777256 0.0202155
                                46.75             0.390927 -0.154236 0.040732
                                19.82             0.302026 -0.180368 0.0499358
                                7.708             0.0559236 0.0798218 -0.0249396
                                3.34              -0.00402406 0.547441 -0.19035
                                1.402             0.0025803 0.480119 -0.31835
                                0.207             0.00060793 -0.0106996 0.68118
[INPUT] 0    0    [1    /1   ]  0.4387               1
[INPUT] 0    0    [1    /1   ]  0.07944              1
[INPUT] 1    0    [7    /2   ]  481.5             0.00192045 -0.00040522
                                113.9             0.0153552 -0.00335896
                                36.23             0.0713991 -0.015286
                                13.34             0.213052 -0.0489218
                                5.252             0.390354 -0.0855008
                                2.12              0.393721 -0.112137
                                0.2528            0.0039563 0.551919
[INPUT] 1    0    [1    /1   ]  0.8561               1
[INPUT] 1    0    [1    /1   ]  0.07889              1
[INPUT] 2    0    [1    /1   ]  0.159                1
[INPUT] 2    0    [1    /1   ]  0.481                1
[INPUT] 3    0    [1    /1   ]  0.336                1
[INPUT] 0    0    [1    /1   ]  9.164                1
[INPUT] 0    0    [1    /1   ]  1.621                1
[INPUT] 1    0    [1    /1   ]  6.458                1
[INPUT] 1    0    [1    /1   ]  2.517                1
[INPUT] 2    0    [1    /1   ]  10.671               1
[INPUT] 2    0    [1    /1   ]  3.308                1
[INPUT] 3    0    [1    /1   ]  7.001                1

Ewald components = 1.37780080874323e-135, -879.68906505185, 776.814472849255
nuclear repulsion = -102.874592202595
number of shells = 32
number of NR pGTOs = 168
number of NR cGTOs = 118
basis = ccpcvtz
ecp = {}
bas 0, expnt(s) = [2.549e+05 3.819e+04 8.690e+03 2.462e+03 8.048e+02 2.913e+02 1.136e+02
 4.675e+01 1.982e+01 7.708e+00 3.340e+00 1.402e+00 2.070e-01]
bas 1, expnt(s) = [0.4387]
bas 2, expnt(s) = [0.07944]
bas 3, expnt(s) = [4.815e+02 1.139e+02 3.623e+01 1.334e+01 5.252e+00 2.120e+00 2.528e-01]
bas 4, expnt(s) = [0.8561]
bas 5, expnt(s) = [0.07889]
bas 6, expnt(s) = [0.159]
bas 7, expnt(s) = [0.481]
bas 8, expnt(s) = [0.336]
bas 9, expnt(s) = [9.164]
bas 10, expnt(s) = [1.621]
bas 11, expnt(s) = [6.458]
bas 12, expnt(s) = [2.517]
bas 13, expnt(s) = [10.671]
bas 14, expnt(s) = [3.308]
bas 15, expnt(s) = [7.001]
bas 16, expnt(s) = [2.549e+05 3.819e+04 8.690e+03 2.462e+03 8.048e+02 2.913e+02 1.136e+02
 4.675e+01 1.982e+01 7.708e+00 3.340e+00 1.402e+00 2.070e-01]
bas 17, expnt(s) = [0.4387]
bas 18, expnt(s) = [0.07944]
bas 19, expnt(s) = [4.815e+02 1.139e+02 3.623e+01 1.334e+01 5.252e+00 2.120e+00 2.528e-01]
bas 20, expnt(s) = [0.8561]
bas 21, expnt(s) = [0.07889]
bas 22, expnt(s) = [0.159]
bas 23, expnt(s) = [0.481]
bas 24, expnt(s) = [0.336]
bas 25, expnt(s) = [9.164]
bas 26, expnt(s) = [1.621]
bas 27, expnt(s) = [6.458]
bas 28, expnt(s) = [2.517]
bas 29, expnt(s) = [10.671]
bas 30, expnt(s) = [3.308]
bas 31, expnt(s) = [7.001]
CPU time:         1.41
lattice vectors  a1 [0.000000000, 5.131550923, 5.131550923]
                 a2 [5.131550923, 0.000000000, 5.131550923]
                 a3 [5.131550923, 5.131550923, 0.000000000]
dimension = 3
low_dim_ft_type = None
Cell volume = 270.256
rcut = 27.543043613549035 (nimgs = [5 5 5])
lattice sum = 815 cells
precision = 1e-08
pseudo = None
ke_cutoff = 518236.2144944772
    = [1921 1921 1921] mesh (7088952961 PWs)


******** <class 'pyscf.pbc.scf.khf.KRHF'> ********
method = KRHF-KSCF-RHF-SCF-RHF
initial guess = minao
damping factor = 0
level_shift factor = 0
DIIS = <class 'pyscf.scf.diis.CDIIS'>
diis_start_cycle = 1
diis_space = 8
SCF conv_tol = 1e-07
SCF conv_tol_grad = None
SCF max_cycles = 50
direct_scf = True
direct_scf_tol = 1e-13
chkfile to save SCF result = data/si_ccpcvtz_k3_Si_2p.chk
max_memory 700000 MB (current use 108 MB)


******** PBC SCF flags ********
N kpts = 27
kpts = [[ 0.00000000e+00  0.00000000e+00  0.00000000e+00]
 [ 2.04070381e-01  2.04070381e-01 -2.04070381e-01]
 [ 4.08140762e-01  4.08140762e-01 -4.08140762e-01]
 [ 2.04070381e-01 -2.04070381e-01  2.04070381e-01]
 [ 4.08140762e-01 -1.13281818e-17  1.13281818e-17]
 [ 6.12211143e-01  2.04070381e-01 -2.04070381e-01]
 [ 4.08140762e-01 -4.08140762e-01  4.08140762e-01]
 [ 6.12211143e-01 -2.04070381e-01  2.04070381e-01]
 [ 8.16281523e-01 -2.26563635e-17  2.26563635e-17]
 [-2.04070381e-01  2.04070381e-01  2.04070381e-01]
 [-1.13281818e-17  4.08140762e-01  1.13281818e-17]
 [ 2.04070381e-01  6.12211143e-01 -2.04070381e-01]
 [-1.13281818e-17  1.13281818e-17  4.08140762e-01]
 [ 2.04070381e-01  2.04070381e-01  2.04070381e-01]
 [ 4.08140762e-01  4.08140762e-01  2.26563635e-17]
 [ 2.04070381e-01 -2.04070381e-01  6.12211143e-01]
 [ 4.08140762e-01  1.64273938e-17  4.08140762e-01]
 [ 6.12211143e-01  2.04070381e-01  2.04070381e-01]
 [-4.08140762e-01  4.08140762e-01  4.08140762e-01]
 [-2.04070381e-01  6.12211143e-01  2.04070381e-01]
 [-2.26563635e-17  8.16281523e-01  2.26563635e-17]
 [-2.04070381e-01  2.04070381e-01  6.12211143e-01]
 [-1.13281818e-17  4.08140762e-01  4.08140762e-01]
 [ 2.04070381e-01  6.12211143e-01  2.04070381e-01]
 [-2.26563635e-17  2.26563635e-17  8.16281523e-01]
 [ 2.04070381e-01  2.04070381e-01  6.12211143e-01]
 [ 4.08140762e-01  4.08140762e-01  4.08140762e-01]]
Exchange divergence treatment (exxdiv) = ewald
Monkhorst pack size [3 3 3] ew_eta 1.379780863988 ew_cut 5.096557435665055
Ewald components = 0, -0.778571064310922, 0.704115632351815
    madelung (= occupied orbital energy shift) = 0.14891086391821373
    Total energy shift due to Ewald probe charge = -1/2 * Nelec*madelung = -2.08475209485
DF object = <pyscf.pbc.df.df.GDF object at 0x155553f33fa0>
Set gradient conv threshold to 0.000316228
Big error detected in the electron number of initial guess density matrix (Ne/cell = 27.9987)!
  This can cause huge error in Fock matrix and lead to instability in SCF for low-dimensional systems.
  DM is normalized wrt the number of electrons 28.0
    CPU time for vnuc pass1: analytic int    286.63 sec, wall time      9.17 sec
    CPU time for contracting Vnuc [0:729]     68.00 sec, wall time      2.37 sec
    CPU time for contracting Vnuc     68.00 sec, wall time      2.37 sec
    CPU time for get_nuc    355.05 sec, wall time     11.55 sec


******** <class 'pyscf.pbc.df.df.GDF'> ********
mesh = [9, 9, 9] (729 PWs)
auxbasis = None
eta = 0.2
exp_to_discard = None
_cderi_to_save = data/si_ccpcvtz_k3_Si_2p_cderi.h5
len(kpts) = 27
    kpts = [[ 0.00000000e+00  0.00000000e+00  0.00000000e+00]
 [ 2.04070381e-01  2.04070381e-01 -2.04070381e-01]
 [ 4.08140762e-01  4.08140762e-01 -4.08140762e-01]
 [ 2.04070381e-01 -2.04070381e-01  2.04070381e-01]
 [ 4.08140762e-01 -1.13281818e-17  1.13281818e-17]
 [ 6.12211143e-01  2.04070381e-01 -2.04070381e-01]
 [ 4.08140762e-01 -4.08140762e-01  4.08140762e-01]
 [ 6.12211143e-01 -2.04070381e-01  2.04070381e-01]
 [ 8.16281523e-01 -2.26563635e-17  2.26563635e-17]
 [-2.04070381e-01  2.04070381e-01  2.04070381e-01]
 [-1.13281818e-17  4.08140762e-01  1.13281818e-17]
 [ 2.04070381e-01  6.12211143e-01 -2.04070381e-01]
 [-1.13281818e-17  1.13281818e-17  4.08140762e-01]
 [ 2.04070381e-01  2.04070381e-01  2.04070381e-01]
 [ 4.08140762e-01  4.08140762e-01  2.26563635e-17]
 [ 2.04070381e-01 -2.04070381e-01  6.12211143e-01]
 [ 4.08140762e-01  1.64273938e-17  4.08140762e-01]
 [ 6.12211143e-01  2.04070381e-01  2.04070381e-01]
 [-4.08140762e-01  4.08140762e-01  4.08140762e-01]
 [-2.04070381e-01  6.12211143e-01  2.04070381e-01]
 [-2.26563635e-17  8.16281523e-01  2.26563635e-17]
 [-2.04070381e-01  2.04070381e-01  6.12211143e-01]
 [-1.13281818e-17  4.08140762e-01  4.08140762e-01]
 [ 2.04070381e-01  6.12211143e-01  2.04070381e-01]
 [-2.26563635e-17  2.26563635e-17  8.16281523e-01]
 [ 2.04070381e-01  2.04070381e-01  6.12211143e-01]
 [ 4.08140762e-01  4.08140762e-01  4.08140762e-01]]
Even tempered Gaussians are generated as DF auxbasis for  Si
  ETB auxbasis for Si  [[0, [10412.35968, 1]], [0, [5206.17984, 1]], [0, [2603.08992, 1]], [0, [1301.54496, 1]], [0, [650.77248, 1]], [0, [325.38624, 1]], [0, [162.69312, 1]], [0, [81.34656, 1]], [0, [40.67328, 1]], [0, [20.33664, 1]], [0, [10.16832, 1]], [0, [5.08416, 1]], [0, [2.54208, 1]], [0, [1.27104, 1]], [0, [0.63552, 1]], [0, [0.31776, 1]], [0, [0.15888, 1]], [1, [2594.063068591702, 1]], [1, [1297.031534295851, 1]], [1, [648.5157671479255, 1]], [1, [324.2578835739628, 1]], [1, [162.1289417869814, 1]], [1, [81.0644708934907, 1]], [1, [40.53223544674535, 1]], [1, [20.266117723372673, 1]], [1, [10.133058861686337, 1]], [1, [5.066529430843168, 1]], [1, [2.533264715421584, 1]], [1, [1.266632357710792, 1]], [1, [0.633316178855396, 1]], [1, [0.316658089427698, 1]], [1, [0.158329044713849, 1]], [2, [646.26688, 1]], [2, [323.13344, 1]], [2, [161.56672, 1]], [2, [80.78336, 1]], [2, [40.39168, 1]], [2, [20.19584, 1]], [2, [10.09792, 1]], [2, [5.04896, 1]], [2, [2.52448, 1]], [2, [1.26224, 1]], [2, [0.63112, 1]], [2, [0.31556, 1]], [2, [0.15778, 1]], [3, [114.68575997812458, 1]], [3, [57.34287998906229, 1]], [3, [28.671439994531145, 1]], [3, [14.335719997265572, 1]], [3, [7.167859998632786, 1]], [3, [3.583929999316393, 1]], [3, [1.7919649996581966, 1]], [3, [0.8959824998290983, 1]], [3, [0.44799124991454914, 1]], [3, [0.22399562495727457, 1]], [4, [20.352, 1]], [4, [10.176, 1]], [4, [5.088, 1]], [4, [2.544, 1]], [4, [1.272, 1]], [4, [0.636, 1]], [4, [0.318, 1]]]
num shells = 124, num cGTOs = 520
Drop 0 primitive fitting functions
make aux basis, num shells = 124, num cGTOs = 520
auxcell.rcut 15.157222589146311
make compensating basis, num shells = 10, num cGTOs = 50
chgcell.rcut 11.482117703874595
    CPU time for 3c2e  22194.30 sec, wall time    770.01 sec
Num uniq kpts 63
uniq_kpts [[ 0.00000000e+00  0.00000000e+00  0.00000000e+00]
 [-2.04070381e-01 -2.04070381e-01  2.04070381e-01]
 [-4.08140762e-01 -4.08140762e-01  4.08140762e-01]
 [-2.04070381e-01  2.04070381e-01 -2.04070381e-01]
 [ 0.00000000e+00  4.08140762e-01 -4.08140762e-01]
 [ 2.04070381e-01  6.12211143e-01 -6.12211143e-01]
 [-4.08140762e-01  1.13281818e-17 -1.13281818e-17]
 [-6.12211143e-01 -2.04070381e-01  2.04070381e-01]
 [-4.08140762e-01  4.08140762e-01 -4.08140762e-01]
 [-2.04070381e-01  6.12211143e-01 -6.12211143e-01]
 [ 0.00000000e+00  8.16281523e-01 -8.16281523e-01]
 [-6.12211143e-01  2.04070381e-01 -2.04070381e-01]
 [-8.16281523e-01  2.26563635e-17 -2.26563635e-17]
 [ 2.04070381e-01 -2.04070381e-01 -2.04070381e-01]
 [ 4.08140762e-01  0.00000000e+00 -4.08140762e-01]
 [ 6.12211143e-01  2.04070381e-01 -6.12211143e-01]
 [ 4.08140762e-01 -4.08140762e-01  0.00000000e+00]
 [ 6.12211143e-01 -2.04070381e-01 -2.04070381e-01]
 [ 8.16281523e-01 -2.77555756e-17 -4.08140762e-01]
 [ 6.12211143e-01 -6.12211143e-01  2.04070381e-01]
 [ 8.16281523e-01 -4.08140762e-01  0.00000000e+00]
 [ 1.02035190e+00 -2.04070381e-01 -2.04070381e-01]
 [ 1.13281818e-17 -4.08140762e-01 -1.13281818e-17]
 [ 2.04070381e-01 -6.12211143e-01  2.04070381e-01]
 [ 4.08140762e-01 -8.16281523e-01  4.08140762e-01]
 [-2.04070381e-01 -6.12211143e-01  2.04070381e-01]
 [ 2.77555756e-17 -8.16281523e-01  4.08140762e-01]
 [ 2.04070381e-01 -1.02035190e+00  6.12211143e-01]
 [ 1.13281818e-17 -1.13281818e-17 -4.08140762e-01]
 [ 2.04070381e-01  2.04070381e-01 -6.12211143e-01]
 [ 4.08140762e-01  4.08140762e-01 -8.16281523e-01]
 [-2.04070381e-01 -2.04070381e-01 -2.04070381e-01]
 [-4.08140762e-01 -4.08140762e-01 -2.26563635e-17]
 [-2.04070381e-01  2.04070381e-01 -6.12211143e-01]
 [ 2.77555756e-17  4.08140762e-01 -8.16281523e-01]
 [ 2.04070381e-01  6.12211143e-01 -1.02035190e+00]
 [-4.08140762e-01 -1.64273938e-17 -4.08140762e-01]
 [-6.12211143e-01 -2.04070381e-01 -2.04070381e-01]
 [ 4.08140762e-01 -4.08140762e-01 -4.08140762e-01]
 [ 6.12211143e-01 -2.04070381e-01 -6.12211143e-01]
 [ 8.16281523e-01  0.00000000e+00 -8.16281523e-01]
 [ 6.12211143e-01 -6.12211143e-01 -2.04070381e-01]
 [ 8.16281523e-01 -4.08140762e-01 -4.08140762e-01]
 [ 1.02035190e+00 -2.04070381e-01 -6.12211143e-01]
 [ 8.16281523e-01 -8.16281523e-01  0.00000000e+00]
 [ 1.02035190e+00 -6.12211143e-01 -2.04070381e-01]
 [ 1.22442229e+00 -4.08140762e-01 -4.08140762e-01]
 [ 2.04070381e-01 -6.12211143e-01 -2.04070381e-01]
 [ 4.08140762e-01 -8.16281523e-01  0.00000000e+00]
 [ 6.12211143e-01 -1.02035190e+00  2.04070381e-01]
 [ 2.26563635e-17 -8.16281523e-01 -2.26563635e-17]
 [ 2.04070381e-01 -1.02035190e+00  2.04070381e-01]
 [ 4.08140762e-01 -1.22442229e+00  4.08140762e-01]
 [ 2.04070381e-01 -2.04070381e-01 -6.12211143e-01]
 [ 4.08140762e-01  0.00000000e+00 -8.16281523e-01]
 [ 6.12211143e-01  2.04070381e-01 -1.02035190e+00]
 [ 1.13281818e-17 -4.08140762e-01 -4.08140762e-01]
 [-2.04070381e-01 -6.12211143e-01 -2.04070381e-01]
 [ 2.26563635e-17 -2.26563635e-17 -8.16281523e-01]
 [ 2.04070381e-01  2.04070381e-01 -1.02035190e+00]
 [ 4.08140762e-01  4.08140762e-01 -1.22442229e+00]
 [-2.04070381e-01 -2.04070381e-01 -6.12211143e-01]
 [-4.08140762e-01 -4.08140762e-01 -4.08140762e-01]]
max_memory 698976.28672 (MB)  blocksize 30656854
Cholesky decomposition for j2c at kpt 0
Symmetry pattern (k - [0. 0. 0.])*a= 2n pi
    make_kpt for uniq_kptji_ids [0]
kpt = [0. 0. 0.]
adapted_ji_idx = [  0   2   5   9  14  20  27  35  44  54  65  77  90 104 119 135 152 170
 189 209 230 252 275 299 324 350 377]
memory = 751.427584
int3c2e [1/1], AO [0:32], ncol = 7021
Symmetry pattern (k + [0. 0. 0.])*a= 2n pi
    make_kpt for [0]
Cholesky decomposition for j2c at kpt 1
Symmetry pattern (k - [-0.20407038 -0.20407038  0.20407038])*a= 2n pi
    make_kpt for uniq_kptji_ids [1]
kpt = [-0.20407038 -0.20407038  0.20407038]
adapted_ji_idx = [  1   4  13  19  34  43  64  76 103 118 151 169 208 229 274 298 349 376]
memory = 2004.824064
int3c2e [1/1], AO [0:32], ncol = 13924
Symmetry pattern (k + [-0.20407038 -0.20407038  0.20407038])*a= 2n pi
    make_kpt for [2]
kpt = [-0.40814076 -0.40814076  0.40814076]
adapted_ji_idx = [  3  18  42  75 117 168 228 297 375]
memory = 2139.230208
int3c2e [1/1], AO [0:32], ncol = 13924
Cholesky decomposition for j2c at kpt 3
Symmetry pattern (k - [-0.20407038  0.20407038 -0.20407038])*a= 2n pi
    make_kpt for uniq_kptji_ids [3]
kpt = [-0.20407038  0.20407038 -0.20407038]
adapted_ji_idx = [  6  11  17  24  32  41  87 101 116 132 149 167 249 272 296 321 347 374]
memory = 2154.323968
int3c2e [1/1], AO [0:32], ncol = 13924
Symmetry pattern (k + [-0.20407038  0.20407038 -0.20407038])*a= 2n pi
    make_kpt for [8]
kpt = [-0.40814076  0.40814076 -0.40814076]
adapted_ji_idx = [ 21  29  38 129 146 164 318 344 371]
memory = 1460.711424
int3c2e [1/1], AO [0:32], ncol = 13924
Cholesky decomposition for j2c at kpt 4
Symmetry pattern (k - [ 0.          0.40814076 -0.40814076])*a= 2n pi
    make_kpt for uniq_kptji_ids [4 7]
kpt = [ 0.          0.40814076 -0.40814076]
adapted_ji_idx = [  7  12  25  33  88 102 133 150 250 273 322 348]
memory = 1460.297728
int3c2e [1/1], AO [0:32], ncol = 13924
kpt = [-0.61221114 -0.20407038  0.20407038]
adapted_ji_idx = [ 15  39 114 165 294 372]
memory = 1465.69216
int3c2e [1/1], AO [0:32], ncol = 13924
Symmetry pattern (k + [ 0.          0.40814076 -0.40814076])*a= 2n pi
    make_kpt for [10 11]
kpt = [ 0.          0.81628152 -0.81628152]
adapted_ji_idx = [ 23 131 320]
memory = 1467.6992
int3c2e [1/1], AO [0:32], ncol = 13924
kpt = [-0.61221114  0.20407038 -0.20407038]
adapted_ji_idx = [ 28  37 145 163 343 370]
memory = 1466.126336
int3c2e [1/1], AO [0:32], ncol = 13924
Cholesky decomposition for j2c at kpt 5
Symmetry pattern (k - [ 0.20407038  0.61221114 -0.61221114])*a= 2n pi
    make_kpt for uniq_kptji_ids [5 6]
kpt = [ 0.20407038  0.61221114 -0.61221114]
adapted_ji_idx = [  8  26  89 134 251 323]
memory = 1466.298368
int3c2e [1/1], AO [0:32], ncol = 13924
kpt = [-4.08140762e-01  1.13281818e-17 -1.13281818e-17]
adapted_ji_idx = [ 10  16  31  40 100 115 148 166 271 295 346 373]
memory = 1466.269696
int3c2e [1/1], AO [0:32], ncol = 13924
Symmetry pattern (k + [ 0.20407038  0.61221114 -0.61221114])*a= 2n pi
    make_kpt for [ 9 12]
kpt = [-0.20407038  0.61221114 -0.61221114]
adapted_ji_idx = [ 22  30 130 147 319 345]
memory = 1467.928576
int3c2e [1/1], AO [0:32], ncol = 13924
kpt = [-8.16281523e-01  2.26563635e-17 -2.26563635e-17]
adapted_ji_idx = [ 36 162 369]
memory = 1466.998784
int3c2e [1/1], AO [0:32], ncol = 13924
Cholesky decomposition for j2c at kpt 13
Symmetry pattern (k - [ 0.20407038 -0.20407038 -0.20407038])*a= 2n pi
    make_kpt for uniq_kptji_ids [13]
kpt = [ 0.20407038 -0.20407038 -0.20407038]
adapted_ji_idx = [ 45  56  68  81  95 110 126 143 161 180 200 221 243 266 290 315 341 368]
memory = 1466.290176
int3c2e [1/1], AO [0:32], ncol = 13924
Symmetry pattern (k + [ 0.20407038 -0.20407038 -0.20407038])*a= 2n pi
    make_kpt for [38]
kpt = [ 0.40814076 -0.40814076 -0.40814076]
adapted_ji_idx = [171 191 212 234 257 281 306 332 359]
memory = 1468.010496
int3c2e [1/1], AO [0:32], ncol = 13924
Cholesky decomposition for j2c at kpt 14
Symmetry pattern (k - [ 0.40814076  0.         -0.40814076])*a= 2n pi
    make_kpt for uniq_kptji_ids [14 25]
kpt = [ 0.40814076  0.         -0.40814076]
adapted_ji_idx = [ 46  57  82  96 127 144 181 201 244 267 316 342]
memory = 1466.769408
int3c2e [1/1], AO [0:32], ncol = 13924
kpt = [-0.20407038 -0.61221114  0.20407038]
adapted_ji_idx = [ 66 108 159 219 288 366]
memory = 1466.822656
int3c2e [1/1], AO [0:32], ncol = 13924
Symmetry pattern (k + [ 0.40814076  0.         -0.40814076])*a= 2n pi
    make_kpt for [40 47]
kpt = [ 0.81628152  0.         -0.81628152]
adapted_ji_idx = [173 236 308]
memory = 1468.010496
int3c2e [1/1], AO [0:32], ncol = 13924
kpt = [ 0.20407038 -0.61221114 -0.20407038]
adapted_ji_idx = [190 211 256 280 331 358]
memory = 1466.83904
int3c2e [1/1], AO [0:32], ncol = 13924
Cholesky decomposition for j2c at kpt 15
Symmetry pattern (k - [ 0.61221114  0.20407038 -0.61221114])*a= 2n pi
    make_kpt for uniq_kptji_ids [15 22]
kpt = [ 0.61221114  0.20407038 -0.61221114]
adapted_ji_idx = [ 47  83 128 182 245 317]
memory = 1468.014592
int3c2e [1/1], AO [0:32], ncol = 13924
kpt = [ 1.13281818e-17 -4.08140762e-01 -1.13281818e-17]
adapted_ji_idx = [ 55  67  94 109 142 160 199 220 265 289 340 367]
memory = 1467.265024
int3c2e [1/1], AO [0:32], ncol = 13924
Symmetry pattern (k + [ 0.61221114  0.20407038 -0.61221114])*a= 2n pi
    make_kpt for [39 50]
kpt = [ 0.61221114 -0.20407038 -0.61221114]
adapted_ji_idx = [172 192 235 258 307 333]
memory = 1467.101184
int3c2e [1/1], AO [0:32], ncol = 13924
kpt = [ 2.26563635e-17 -8.16281523e-01 -2.26563635e-17]
adapted_ji_idx = [210 279 357]
memory = 1466.621952
int3c2e [1/1], AO [0:32], ncol = 13924
Cholesky decomposition for j2c at kpt 16
Symmetry pattern (k - [ 0.40814076 -0.40814076  0.        ])*a= 2n pi
    make_kpt for uniq_kptji_ids [16 33]
kpt = [ 0.40814076 -0.40814076  0.        ]
adapted_ji_idx = [ 48  59  71  84  98 113 183 203 224 246 269 293]
memory = 1465.868288
int3c2e [1/1], AO [0:32], ncol = 13924
kpt = [-0.20407038  0.20407038 -0.61221114]
adapted_ji_idx = [120 137 155 309 335 362]
memory = 1466.273792
int3c2e [1/1], AO [0:32], ncol = 13924
Symmetry pattern (k + [ 0.40814076 -0.40814076  0.        ])*a= 2n pi
    make_kpt for [44 53]
kpt = [ 0.81628152 -0.81628152  0.        ]
adapted_ji_idx = [177 197 218]
memory = 1468.02688
int3c2e [1/1], AO [0:32], ncol = 13924
kpt = [ 0.20407038 -0.20407038 -0.61221114]
adapted_ji_idx = [231 254 278 303 329 356]
memory = 1467.174912
int3c2e [1/1], AO [0:32], ncol = 13924
Cholesky decomposition for j2c at kpt 17
Symmetry pattern (k - [ 0.61221114 -0.20407038 -0.20407038])*a= 2n pi
    make_kpt for uniq_kptji_ids [17 26 34 37]
kpt = [ 0.61221114 -0.20407038 -0.20407038]
adapted_ji_idx = [ 49  60  85  99 184 204 247 270]
memory = 1466.974208
int3c2e [1/1], AO [0:32], ncol = 13924
kpt = [ 2.77555756e-17 -8.16281523e-01  4.08140762e-01]
adapted_ji_idx = [ 69 111 222 291]
memory = 1466.85952
int3c2e [1/1], AO [0:32], ncol = 13924
kpt = [ 2.77555756e-17  4.08140762e-01 -8.16281523e-01]
adapted_ji_idx = [121 138 310 336]
memory = 1466.65472
int3c2e [1/1], AO [0:32], ncol = 13924
kpt = [-0.61221114 -0.20407038 -0.20407038]
adapted_ji_idx = [153 360]
memory = 1466.073088
int3c2e [1/1], AO [0:32], ncol = 13924
Symmetry pattern (k + [ 0.61221114 -0.20407038 -0.20407038])*a= 2n pi
    make_kpt for [46 49 55 56]
kpt = [ 1.22442229 -0.40814076 -0.40814076]
adapted_ji_idx = [179]
memory = 1467.830272
int3c2e [1/1], AO [0:32], ncol = 13924
kpt = [ 0.61221114 -1.0203519   0.20407038]
adapted_ji_idx = [196 217]
memory = 1466.417152
int3c2e [1/1], AO [0:32], ncol = 13924
kpt = [ 0.61221114  0.20407038 -1.0203519 ]
adapted_ji_idx = [233 305]
memory = 1467.027456
int3c2e [1/1], AO [0:32], ncol = 13924
kpt = [ 1.13281818e-17 -4.08140762e-01 -4.08140762e-01]
adapted_ji_idx = [253 277 328 355]
memory = 1466.277888
int3c2e [1/1], AO [0:32], ncol = 13924
Cholesky decomposition for j2c at kpt 18
Symmetry pattern (k - [ 8.16281523e-01 -2.77555756e-17 -4.08140762e-01])*a= 2n pi
    make_kpt for uniq_kptji_ids [18 23 35 36]
kpt = [ 8.16281523e-01 -2.77555756e-17 -4.08140762e-01]
adapted_ji_idx = [ 50  86 185 248]
memory = 1466.585088
int3c2e [1/1], AO [0:32], ncol = 13924
kpt = [ 0.20407038 -0.61221114  0.20407038]
adapted_ji_idx = [ 58  70  97 112 202 223 268 292]
memory = 1466.40896
int3c2e [1/1], AO [0:32], ncol = 13924
kpt = [ 0.20407038  0.61221114 -1.0203519 ]
adapted_ji_idx = [122 311]
memory = 1466.904576
int3c2e [1/1], AO [0:32], ncol = 13924
kpt = [-4.08140762e-01 -1.64273938e-17 -4.08140762e-01]
adapted_ji_idx = [136 154 334 361]
memory = 1467.387904
int3c2e [1/1], AO [0:32], ncol = 13924
Symmetry pattern (k + [ 8.16281523e-01 -2.77555756e-17 -4.08140762e-01])*a= 2n pi
    make_kpt for [45 52 54 57]
kpt = [ 1.0203519  -0.61221114 -0.20407038]
adapted_ji_idx = [178 198]
memory = 1466.957824
int3c2e [1/1], AO [0:32], ncol = 13924
kpt = [ 0.40814076 -1.22442229  0.40814076]
adapted_ji_idx = [216]
memory = 1467.232256
int3c2e [1/1], AO [0:32], ncol = 13924
kpt = [ 0.40814076  0.         -0.81628152]
adapted_ji_idx = [232 255 304 330]
memory = 1466.679296
int3c2e [1/1], AO [0:32], ncol = 13924
kpt = [-0.20407038 -0.61221114 -0.20407038]
adapted_ji_idx = [276 354]
memory = 1466.662912
int3c2e [1/1], AO [0:32], ncol = 13924
Cholesky decomposition for j2c at kpt 19
Symmetry pattern (k - [ 0.61221114 -0.61221114  0.20407038])*a= 2n pi
    make_kpt for uniq_kptji_ids [19 28]
kpt = [ 0.61221114 -0.61221114  0.20407038]
adapted_ji_idx = [ 51  62  74 186 206 227]
memory = 1465.319424
int3c2e [1/1], AO [0:32], ncol = 13924
kpt = [ 1.13281818e-17 -1.13281818e-17 -4.08140762e-01]
adapted_ji_idx = [ 78  92 107 123 140 158 240 263 287 312 338 365]
memory = 1466.208256
int3c2e [1/1], AO [0:32], ncol = 13924
Symmetry pattern (k + [ 0.61221114 -0.61221114  0.20407038])*a= 2n pi
    make_kpt for [41 58]
kpt = [ 0.61221114 -0.61221114 -0.20407038]
adapted_ji_idx = [174 194 215 237 260 284]
memory = 1466.90048
int3c2e [1/1], AO [0:32], ncol = 13924
kpt = [ 2.26563635e-17 -2.26563635e-17 -8.16281523e-01]
adapted_ji_idx = [300 326 353]
memory = 1466.728448
int3c2e [1/1], AO [0:32], ncol = 13924
Cholesky decomposition for j2c at kpt 20
Symmetry pattern (k - [ 0.81628152 -0.40814076  0.        ])*a= 2n pi
    make_kpt for uniq_kptji_ids [20 27 29 32]
kpt = [ 0.81628152 -0.40814076  0.        ]
adapted_ji_idx = [ 52  63 187 207]
memory = 1465.511936
int3c2e [1/1], AO [0:32], ncol = 13924
kpt = [ 0.20407038 -1.0203519   0.61221114]
adapted_ji_idx = [ 72 225]
memory = 1468.04736
int3c2e [1/1], AO [0:32], ncol = 13924
kpt = [ 0.20407038  0.20407038 -0.61221114]
adapted_ji_idx = [ 79  93 124 141 241 264 313 339]
memory = 1466.474496
int3c2e [1/1], AO [0:32], ncol = 13924
kpt = [-4.08140762e-01 -4.08140762e-01 -2.26563635e-17]
adapted_ji_idx = [105 156 285 363]
memory = 1466.949632
int3c2e [1/1], AO [0:32], ncol = 13924
Symmetry pattern (k + [ 0.81628152 -0.40814076  0.        ])*a= 2n pi
    make_kpt for [43 48 60 61]
kpt = [ 1.0203519  -0.20407038 -0.61221114]
adapted_ji_idx = [176 239]
memory = 1466.462208
int3c2e [1/1], AO [0:32], ncol = 13924
kpt = [ 0.40814076 -0.81628152  0.        ]
adapted_ji_idx = [193 214 259 283]
memory = 1465.892864
int3c2e [1/1], AO [0:32], ncol = 13924
kpt = [ 0.40814076  0.40814076 -1.22442229]
adapted_ji_idx = [302]
memory = 1465.786368
int3c2e [1/1], AO [0:32], ncol = 13924
kpt = [-0.20407038 -0.20407038 -0.61221114]
adapted_ji_idx = [325 352]
memory = 1465.335808
int3c2e [1/1], AO [0:32], ncol = 13924
Cholesky decomposition for j2c at kpt 21
Symmetry pattern (k - [ 1.0203519  -0.20407038 -0.20407038])*a= 2n pi
    make_kpt for uniq_kptji_ids [21 24 30 31]
kpt = [ 1.0203519  -0.20407038 -0.20407038]
adapted_ji_idx = [ 53 188]
memory = 1464.664064
int3c2e [1/1], AO [0:32], ncol = 13924
kpt = [ 0.40814076 -0.81628152  0.40814076]
adapted_ji_idx = [ 61  73 205 226]
memory = 1465.585664
int3c2e [1/1], AO [0:32], ncol = 13924
kpt = [ 0.40814076  0.40814076 -0.81628152]
adapted_ji_idx = [ 80 125 242 314]
memory = 1467.457536
int3c2e [1/1], AO [0:32], ncol = 13924
kpt = [-0.20407038 -0.20407038 -0.20407038]
adapted_ji_idx = [ 91 106 139 157 262 286 337 364]
memory = 1466.740736
int3c2e [1/1], AO [0:32], ncol = 13924
Symmetry pattern (k + [ 1.0203519  -0.20407038 -0.20407038])*a= 2n pi
    make_kpt for [42 51 59 62]
kpt = [ 0.81628152 -0.40814076 -0.40814076]
adapted_ji_idx = [175 195 238 261]
memory = 1466.261504
int3c2e [1/1], AO [0:32], ncol = 13924
kpt = [ 0.20407038 -1.0203519   0.20407038]
adapted_ji_idx = [213 282]
memory = 1467.396096
int3c2e [1/1], AO [0:32], ncol = 13924
kpt = [ 0.20407038  0.20407038 -1.0203519 ]
adapted_ji_idx = [301 327]
memory = 1466.34752
int3c2e [1/1], AO [0:32], ncol = 13924
kpt = [-0.40814076 -0.40814076 -0.40814076]
adapted_ji_idx = [351]
memory = 1465.30304
int3c2e [1/1], AO [0:32], ncol = 13924
    CPU time for j3c  29209.03 sec, wall time   1186.80 sec
    CPU time for Init get_k_kpts  29209.52 sec, wall time   1186.82 sec
    CPU time for get_k_kpts: make_kpt ki>=kj (0,*)      6.58 sec, wall time      0.30 sec
    CPU time for get_k_kpts: make_kpt ki>=kj (1,*)     14.22 sec, wall time      0.46 sec
    CPU time for get_k_kpts: make_kpt ki>=kj (2,*)     22.10 sec, wall time      0.70 sec
    CPU time for get_k_kpts: make_kpt ki>=kj (3,*)     27.18 sec, wall time      0.85 sec
    CPU time for get_k_kpts: make_kpt ki>=kj (4,*)     34.36 sec, wall time      1.08 sec
    CPU time for get_k_kpts: make_kpt ki>=kj (5,*)     39.60 sec, wall time      1.24 sec
    CPU time for get_k_kpts: make_kpt ki>=kj (6,*)     47.16 sec, wall time      1.48 sec
    CPU time for get_k_kpts: make_kpt ki>=kj (7,*)     51.77 sec, wall time      1.63 sec
    CPU time for get_k_kpts: make_kpt ki>=kj (8,*)     57.95 sec, wall time      1.82 sec
    CPU time for get_k_kpts: make_kpt ki>=kj (9,*)     64.68 sec, wall time      2.03 sec
    CPU time for get_k_kpts: make_kpt ki>=kj (10,*)     72.72 sec, wall time      2.28 sec
    CPU time for get_k_kpts: make_kpt ki>=kj (11,*)     79.18 sec, wall time      2.49 sec
    CPU time for get_k_kpts: make_kpt ki>=kj (12,*)     85.16 sec, wall time      2.67 sec
    CPU time for get_k_kpts: make_kpt ki>=kj (13,*)     90.96 sec, wall time      2.86 sec
    CPU time for get_k_kpts: make_kpt ki>=kj (14,*)     98.72 sec, wall time      3.10 sec
    CPU time for get_k_kpts: make_kpt ki>=kj (15,*)     91.72 sec, wall time      2.89 sec
    CPU time for get_k_kpts: make_kpt ki>=kj (16,*)    104.85 sec, wall time      3.29 sec
    CPU time for get_k_kpts: make_kpt ki>=kj (17,*)    113.70 sec, wall time      3.57 sec
    CPU time for get_k_kpts: make_kpt ki>=kj (18,*)    123.91 sec, wall time      3.89 sec
    CPU time for get_k_kpts: make_kpt ki>=kj (19,*)    132.31 sec, wall time      4.15 sec
    CPU time for get_k_kpts: make_kpt ki>=kj (20,*)    135.79 sec, wall time      4.29 sec
    CPU time for get_k_kpts: make_kpt ki>=kj (21,*)    146.36 sec, wall time      4.59 sec
    CPU time for get_k_kpts: make_kpt ki>=kj (22,*)    150.43 sec, wall time      4.72 sec
    CPU time for get_k_kpts: make_kpt ki>=kj (23,*)    156.91 sec, wall time      4.93 sec
    CPU time for get_k_kpts: make_kpt ki>=kj (24,*)    165.01 sec, wall time      5.18 sec
    CPU time for get_k_kpts: make_kpt ki>=kj (25,*)    154.48 sec, wall time      4.86 sec
    CPU time for get_k_kpts: make_kpt ki>=kj (26,*)    155.77 sec, wall time      4.89 sec
Monkhorst pack size [3 3 3] ew_eta 1.379780863988 ew_cut 5.096557435665055
Ewald components = 0, -0.778571064310922, 0.704115632351815
    CPU time for get_j pass 1     66.77 sec, wall time      2.33 sec
    CPU time for get_j pass 2      5.75 sec, wall time      1.57 sec
    CPU time for vj and vk  31710.08 sec, wall time   1267.12 sec
Ewald components = 1.37780080874323e-135, -879.68906505185, 776.814472849255
E1 = (-609.5289291418561+1.3685040754928143e-15j)  E_coul = (133.77116212052525-8.458383170827653e-16j)
init E= -578.632359223926
cond(S) = [ 394814.95907718  783611.81754828  783611.81754157  783611.81748556
 1379448.74057811  406395.99346579  783611.81752067  406395.9934664
 1379448.740517    783611.81751383 1379448.74060555  406395.99347963
 1379448.74063182  783611.8175094   406395.99345862  406395.99348964
  406395.99345615  406395.99346589  783611.81750515  406395.99347252
 1379448.74060179  406395.99348185  406395.99348373  406395.9934632
 1379448.74062155  406395.99346828  783611.81751017]
    CPU time for initialize scf  32082.29 sec, wall time   1280.06 sec
HOMO = 0.378545346529  LUMO = 0.404715392176
     k-point                  mo_energy
   0 ( 0.000  0.000  0.000)   [-68.24643674 -68.24642927  -5.66738456  -5.66049177  -3.74923878
  -3.74919015  -3.74919015  -3.74799355  -3.74795163  -3.74795163
  -0.82259533   0.37801545   0.37854535   0.37854535] [ 0.49771463  0.51268894  0.51269295  0.51269295  0.75522415  0.78353548
  0.78353548  0.92277731  0.92286004  0.92286004  1.05051554  1.44611817
  1.44615558  1.44615558  1.48889488  1.48889488  1.53524117  1.53524117
  1.53530315  1.67143381  1.67143381  1.67146633  1.88517027  1.88524239
  1.88524239  2.05011524  2.05011524  2.16502859  2.16509541  2.16509541
  2.23801447  2.23801447  2.24394373  2.2750793   2.27513302  2.27513302
  2.35164195  2.39114892  2.39114892  2.39124168  2.42656505  2.42660505
  2.42660505  2.54393402  3.1104871   3.1105917   3.1105917   3.37629384
  3.59573124  3.59573124  3.59574108  4.33952024  4.33952024  4.33952919
  6.86343167  6.86343167  6.91426293  6.9143208   6.9143208   6.95035949
  6.95035949  7.50015738  7.50020725  7.50020725 10.40057426 11.06446111
 11.44339698 11.4434081  11.4434081  11.87288646 11.87291078 11.87291078
 23.51762713 23.51762713 23.5176414  23.52966897 23.52966897 23.52966966
 23.52979035 23.53047952 23.53047952 23.53048138 23.53379553 23.53379553
 23.53380989 23.5496462  28.58335136 28.58335136 28.61034337 28.6103555
 28.6103555  28.63590419 28.63590419 28.93813995 28.93815207 28.93815207
 41.44679976 41.44681302 41.44681302 41.9297436  41.92975854 41.92975854
 58.0733124  59.55252634]
   1 (-0.000 -0.000  0.333)   [-6.82464363e+01 -6.82464266e+01 -5.66523549e+00 -5.66087652e+00
 -3.74984284e+00 -3.74943777e+00 -3.74939301e+00 -3.74827275e+00
 -3.74790521e+00 -3.74786805e+00 -6.13615549e-01 -3.56739766e-02
  3.10673682e-01  3.11128035e-01] [ 0.4419612   0.56765488  0.56765593  0.76057433  0.79103807  0.79105669
  0.81511761  1.01575628  1.08047863  1.08048159  1.16169838  1.21649922
  1.21651494  1.33282071  1.48958922  1.48965934  1.50562299  1.59392238
  1.59393798  1.70569373  1.75410496  1.75411302  1.76537069  1.81487101
  1.81495373  1.87878121  1.87882229  1.97612283  2.1427222   2.14272378
  2.20217526  2.22467242  2.29100096  2.29230513  2.29233484  2.45282791
  2.4811511   2.48120336  2.55264091  2.62027043  2.62027817  2.73445899
  2.73451577  2.82908138  2.83243731  2.83245933  2.92354832  3.63251568
  3.80728145  3.80731003  4.03377151  4.14332265  4.26441249  4.26445108
  6.86703733  6.86706803  6.90192517  7.02775564  7.02776079  7.04123712
  7.04126101  7.18750794  7.22286565  7.22286569 10.69741826 11.30716904
 11.49731565 11.56394265 11.56396414 11.81152141 11.85009515 11.85013085
 23.51798104 23.52236092 23.5223696  23.52483338 23.524837   23.52815853
 23.53047269 23.53153351 23.54079036 23.54079267 23.54315223 23.5431604
 23.54369007 23.55746605 28.5857665  28.58577777 28.60790756 28.67594382
 28.67594893 28.6823224  28.68232432 28.76877767 28.78630912 28.78630995
 41.47778119 41.60093535 41.60094892 41.67829054 41.91124715 41.91126276
 58.69016185 60.39489785]
   2 (-0.000 -0.000  0.667)   [-6.82464363e+01 -6.82464266e+01 -5.66523549e+00 -5.66087652e+00
 -3.74984284e+00 -3.74943777e+00 -3.74939301e+00 -3.74827275e+00
 -3.74790521e+00 -3.74786805e+00 -6.13615549e-01 -3.56739766e-02
  3.10673682e-01  3.11128035e-01] [ 0.4419612   0.56765488  0.56765593  0.76057433  0.79103807  0.79105669
  0.81511761  1.01575628  1.08047863  1.08048159  1.16169837  1.21649922
  1.21651494  1.33282071  1.48958922  1.48965934  1.50562299  1.59392238
  1.59393798  1.70569373  1.75410496  1.75411302  1.76537069  1.81487101
  1.81495373  1.87878121  1.87882229  1.97612283  2.1427222   2.14272378
  2.20217526  2.22467242  2.29100096  2.29230513  2.29233484  2.45282791
  2.4811511   2.48120336  2.55264091  2.62027043  2.62027817  2.73445899
  2.73451577  2.82908138  2.83243732  2.83245933  2.92354832  3.63251567
  3.80728145  3.80731003  4.03377151  4.14332265  4.26441249  4.26445108
  6.86703733  6.86706803  6.90192517  7.02775564  7.02776079  7.04123711
  7.04126101  7.18750794  7.22286565  7.22286569 10.69741826 11.30716904
 11.49731565 11.56394265 11.56396414 11.81152141 11.85009515 11.85013085
 23.51798104 23.52236092 23.5223696  23.52483338 23.524837   23.52815853
 23.53047269 23.53153351 23.54079036 23.54079267 23.54315223 23.5431604
 23.54369007 23.55746605 28.5857665  28.58577777 28.60790756 28.67594382
 28.67594893 28.6823224  28.68232432 28.76877767 28.78630912 28.78630995
 41.47778119 41.60093535 41.60094892 41.67829054 41.91124715 41.91126276
 58.69016185 60.39489785]
   3 ( 0.000  0.333 -0.000)   [-6.82464363e+01 -6.82464266e+01 -5.66523549e+00 -5.66087652e+00
 -3.74984284e+00 -3.74943777e+00 -3.74939301e+00 -3.74827275e+00
 -3.74790521e+00 -3.74786805e+00 -6.13615549e-01 -3.56739766e-02
  3.10673682e-01  3.11128035e-01] [ 0.4419612   0.56765488  0.56765593  0.76057433  0.79103807  0.79105669
  0.81511761  1.01575628  1.08047863  1.08048159  1.16169838  1.21649922
  1.21651494  1.33282071  1.48958922  1.48965934  1.50562299  1.59392238
  1.59393798  1.70569373  1.75410496  1.75411302  1.76537069  1.81487101
  1.81495373  1.87878121  1.87882229  1.97612283  2.1427222   2.14272378
  2.20217526  2.22467242  2.29100096  2.29230513  2.29233484  2.45282792
  2.4811511   2.48120336  2.55264091  2.62027042  2.62027816  2.73445899
  2.73451577  2.82908138  2.83243731  2.83245933  2.92354832  3.63251568
  3.80728145  3.80731002  4.03377153  4.14332265  4.26441248  4.26445108
  6.86703733  6.86706803  6.90192517  7.02775564  7.02776079  7.04123712
  7.04126101  7.18750794  7.22286565  7.22286569 10.69741826 11.30716904
 11.49731566 11.56394265 11.56396414 11.81152141 11.85009515 11.85013085
 23.51798104 23.52236092 23.5223696  23.52483338 23.524837   23.52815853
 23.53047269 23.53153351 23.54079036 23.54079267 23.54315223 23.5431604
 23.54369007 23.55746605 28.5857665  28.58577777 28.60790756 28.67594382
 28.67594893 28.6823224  28.68232432 28.76877767 28.78630912 28.78630995
 41.47778119 41.60093535 41.60094892 41.67829054 41.91124715 41.91126276
 58.69016185 60.39489785]
   4 ( 0.000  0.333  0.333)   [-6.82464365e+01 -6.82464257e+01 -5.66467477e+00 -5.66092681e+00
 -3.74972196e+00 -3.74968417e+00 -3.74918943e+00 -3.74878047e+00
 -3.74782205e+00 -3.74779333e+00 -5.45000256e-01  2.21662867e-03
  2.09875299e-01  2.10281563e-01] [ 0.40471539  0.48347117  0.75190929  0.75197776  0.85540492  0.87636423
  0.98901642  1.03259513  1.03265299  1.0711594   1.14304105  1.14837818
  1.14842204  1.2605151   1.42387874  1.49084205  1.52080141  1.52081517
  1.55883537  1.63265033  1.69250281  1.69254646  1.75054868  1.96324677
  1.96326565  1.97507324  2.03184397  2.03191054  2.03328823  2.07510993
  2.14351304  2.22347972  2.22354467  2.26736083  2.38521828  2.38528528
  2.43585934  2.44254306  2.46598962  2.62513928  2.66858017  2.66858638
  2.6946155   2.86153872  2.86157436  3.07437539  3.22608342  3.46194826
  3.67897234  3.67898415  3.71048122  4.31639743  4.38396972  4.38401476
  6.84139274  6.87498268  6.90245695  6.93706406  6.93708538  6.98096605
  7.0858051   7.09357845  7.09359542  7.34960912 10.94829655 11.16391848
 11.34241292 11.34242964 11.390726   11.79751331 12.06275952 12.06278967
 23.51983043 23.51983876 23.52476319 23.52476467 23.52685974 23.52897512
 23.53037569 23.53742068 23.54120387 23.54222173 23.54222561 23.54849204
 23.54849536 23.56659135 28.577583   28.58992619 28.60680055 28.62506741
 28.62507451 28.65291044 28.71214628 28.7121533  28.71252154 28.86393553
 41.3321383  41.33214872 41.38562748 41.82962669 42.18509602 42.18510821
 59.23915359 59.72360586]
   5 ( 0.000  0.333  0.667)   [-6.82464282e+01 -6.82464280e+01 -5.66294336e+00 -5.66161025e+00
 -3.75015432e+00 -3.74967217e+00 -3.74930715e+00 -3.74871647e+00
 -3.74782689e+00 -3.74775079e+00 -3.53868201e-01 -1.59167134e-01
  3.94850621e-02  2.32969918e-01] [ 0.45586259  0.68415552  0.71105693  0.73677917  0.74354088  0.7790167
  1.04234278  1.07133989  1.12591115  1.13428371  1.16540216  1.20689407
  1.23773734  1.27650175  1.38839548  1.40935049  1.44597778  1.45688003
  1.57630082  1.58878266  1.6478141   1.69817503  1.70219936  1.71298433
  1.90075419  1.9066734   2.07309784  2.08363335  2.08656339  2.11905002
  2.14808991  2.2167551   2.22436854  2.25844658  2.32348393  2.47566907
  2.4981033   2.58363811  2.58709163  2.61271363  2.66304094  2.70793052
  2.77662768  2.80217715  2.86269802  3.06962946  3.11508195  3.28458244
  3.29062583  3.42646608  3.90328096  3.9915768   4.09212795  4.14310861
  6.90289993  6.91832257  6.94220645  7.00809052  7.03639379  7.06838519
  7.07851837  7.12686721  7.13261834  7.18245321 10.96396881 11.16878652
 11.18294406 11.20695103 11.52917622 11.60846383 11.69934834 11.70827972
 23.52117914 23.52212528 23.52302748 23.52470583 23.52797882 23.53398016
 23.53598549 23.53808683 23.53811365 23.53940871 23.54252264 23.54504056
 23.54791557 23.559725   28.60385466 28.62073354 28.62654683 28.6675068
 28.6797097  28.69416351 28.70321515 28.72899065 28.73184813 28.76240469
 41.10037477 41.17890348 41.49069893 41.57207544 41.58922157 41.74953715
 59.42760044 60.10804925]
   6 ( 0.000  0.667 -0.000)   [-6.82464363e+01 -6.82464266e+01 -5.66523549e+00 -5.66087652e+00
 -3.74984284e+00 -3.74943777e+00 -3.74939301e+00 -3.74827275e+00
 -3.74790521e+00 -3.74786805e+00 -6.13615549e-01 -3.56739766e-02
  3.10673682e-01  3.11128035e-01] [ 0.4419612   0.56765488  0.56765593  0.76057433  0.79103807  0.79105669
  0.81511761  1.01575628  1.08047863  1.08048159  1.16169837  1.21649922
  1.21651494  1.33282071  1.48958922  1.48965934  1.50562299  1.59392238
  1.59393798  1.70569373  1.75410496  1.75411302  1.76537069  1.81487101
  1.81495373  1.87878121  1.87882229  1.97612283  2.1427222   2.14272378
  2.20217526  2.22467242  2.29100096  2.29230513  2.29233484  2.45282792
  2.48115109  2.48120336  2.55264091  2.62027042  2.62027816  2.73445899
  2.73451577  2.82908138  2.83243731  2.83245933  2.92354832  3.63251568
  3.80728145  3.80731003  4.03377153  4.14332266  4.26441248  4.26445108
  6.86703733  6.86706803  6.90192517  7.02775564  7.02776079  7.04123711
  7.04126101  7.18750794  7.22286565  7.22286569 10.69741826 11.30716904
 11.49731566 11.56394265 11.56396414 11.81152141 11.85009515 11.85013085
 23.51798104 23.52236092 23.5223696  23.52483338 23.524837   23.52815853
 23.53047269 23.53153351 23.54079036 23.54079267 23.54315223 23.5431604
 23.54369007 23.55746605 28.5857665  28.58577777 28.60790756 28.67594382
 28.67594893 28.6823224  28.68232432 28.76877767 28.78630912 28.78630995
 41.47778119 41.60093535 41.60094892 41.67829054 41.91124715 41.91126276
 58.69016185 60.39489785]
   7 ( 0.000  0.667  0.333)   [-6.82464282e+01 -6.82464280e+01 -5.66294336e+00 -5.66161025e+00
 -3.75015432e+00 -3.74967217e+00 -3.74930715e+00 -3.74871647e+00
 -3.74782689e+00 -3.74775079e+00 -3.53868201e-01 -1.59167134e-01
  3.94850621e-02  2.32969918e-01] [ 0.45586259  0.68415552  0.71105693  0.73677917  0.74354088  0.7790167
  1.04234278  1.07133989  1.12591115  1.13428371  1.16540216  1.20689407
  1.23773734  1.27650175  1.38839548  1.40935049  1.44597778  1.45688003
  1.57630082  1.58878266  1.6478141   1.69817503  1.70219936  1.71298433
  1.90075419  1.9066734   2.07309784  2.08363335  2.08656339  2.11905002
  2.14808991  2.2167551   2.22436854  2.25844658  2.32348393  2.47566907
  2.4981033   2.58363811  2.58709163  2.61271363  2.66304094  2.70793052
  2.77662768  2.80217715  2.86269802  3.06962947  3.11508195  3.28458244
  3.29062583  3.42646608  3.90328096  3.9915768   4.09212795  4.14310861
  6.90289993  6.91832257  6.94220645  7.00809052  7.03639379  7.06838519
  7.07851837  7.12686721  7.13261834  7.18245321 10.96396881 11.16878652
 11.18294406 11.20695103 11.52917622 11.60846383 11.69934834 11.70827972
 23.52117914 23.52212528 23.52302748 23.52470583 23.52797882 23.53398016
 23.53598549 23.53808683 23.53811365 23.53940871 23.54252264 23.54504056
 23.54791557 23.559725   28.60385466 28.62073354 28.62654683 28.6675068
 28.6797097  28.69416351 28.70321515 28.72899065 28.73184813 28.76240469
 41.10037477 41.17890348 41.49069893 41.57207544 41.58922157 41.74953715
 59.42760044 60.10804925]
   8 ( 0.000  0.667  0.667)   [-6.82464365e+01 -6.82464257e+01 -5.66467477e+00 -5.66092681e+00
 -3.74972196e+00 -3.74968417e+00 -3.74918943e+00 -3.74878047e+00
 -3.74782205e+00 -3.74779333e+00 -5.45000256e-01  2.21662868e-03
  2.09875299e-01  2.10281564e-01] [ 0.40471539  0.48347117  0.75190929  0.75197776  0.85540492  0.87636423
  0.98901642  1.03259513  1.03265299  1.0711594   1.14304105  1.14837818
  1.14842204  1.2605151   1.42387874  1.49084205  1.52080141  1.52081517
  1.55883537  1.63265033  1.69250281  1.69254646  1.75054868  1.96324677
  1.96326565  1.97507324  2.03184397  2.03191054  2.03328823  2.07510993
  2.14351303  2.22347972  2.22354467  2.26736083  2.38521828  2.38528528
  2.43585934  2.44254306  2.46598962  2.62513928  2.66858017  2.66858638
  2.69461549  2.86153872  2.86157436  3.07437539  3.22608343  3.46194826
  3.67897234  3.67898415  3.71048122  4.31639743  4.38396972  4.38401476
  6.84139274  6.87498268  6.90245695  6.93706406  6.93708538  6.98096605
  7.0858051   7.09357845  7.09359542  7.34960912 10.94829655 11.16391848
 11.34241292 11.34242964 11.390726   11.79751331 12.06275952 12.06278967
 23.51983043 23.51983876 23.52476319 23.52476467 23.52685974 23.52897512
 23.53037569 23.53742068 23.54120387 23.54222173 23.54222561 23.54849204
 23.54849536 23.56659135 28.57758301 28.58992619 28.60680055 28.62506741
 28.62507451 28.65291044 28.71214628 28.7121533  28.71252154 28.86393553
 41.3321383  41.33214872 41.38562748 41.82962669 42.18509602 42.18510821
 59.23915359 59.72360586]
   9 ( 0.333  0.000  0.000)   [-6.82464363e+01 -6.82464266e+01 -5.66523549e+00 -5.66087652e+00
 -3.74984284e+00 -3.74943777e+00 -3.74939301e+00 -3.74827275e+00
 -3.74790521e+00 -3.74786805e+00 -6.13615549e-01 -3.56739766e-02
  3.10673682e-01  3.11128035e-01] [ 0.4419612   0.56765488  0.56765593  0.76057433  0.79103807  0.79105669
  0.81511761  1.01575628  1.08047863  1.08048159  1.16169838  1.21649922
  1.21651494  1.33282071  1.48958922  1.48965934  1.50562299  1.59392238
  1.59393798  1.70569373  1.75410496  1.75411302  1.76537069  1.81487101
  1.81495373  1.87878121  1.87882229  1.97612284  2.1427222   2.14272378
  2.20217526  2.22467242  2.29100096  2.29230513  2.29233484  2.45282792
  2.4811511   2.48120336  2.55264091  2.62027043  2.62027816  2.73445899
  2.73451577  2.82908138  2.83243731  2.83245933  2.92354833  3.63251568
  3.80728145  3.80731003  4.03377158  4.14332267  4.26441248  4.26445109
  6.86703733  6.86706803  6.90192517  7.02775564  7.02776079  7.04123711
  7.04126101  7.18750794  7.22286565  7.22286569 10.69741826 11.30716904
 11.49731566 11.56394265 11.56396414 11.81152141 11.85009515 11.85013085
 23.51798104 23.52236092 23.5223696  23.52483338 23.524837   23.52815853
 23.53047269 23.53153351 23.54079036 23.54079267 23.54315223 23.5431604
 23.54369007 23.55746605 28.5857665  28.58577777 28.60790756 28.67594382
 28.67594893 28.6823224  28.68232432 28.76877767 28.78630912 28.78630995
 41.47778119 41.60093536 41.60094892 41.67829054 41.91124715 41.91126276
 58.69016185 60.39489785]
  10 ( 0.333  0.000  0.333)   [-6.82464365e+01 -6.82464257e+01 -5.66467477e+00 -5.66092681e+00
 -3.74972196e+00 -3.74968417e+00 -3.74918943e+00 -3.74878047e+00
 -3.74782205e+00 -3.74779333e+00 -5.45000256e-01  2.21662867e-03
  2.09875299e-01  2.10281563e-01] [ 0.40471539  0.48347117  0.75190929  0.75197776  0.85540492  0.87636423
  0.98901642  1.03259513  1.03265299  1.0711594   1.14304105  1.14837818
  1.14842204  1.2605151   1.42387874  1.49084205  1.52080141  1.52081517
  1.55883537  1.63265032  1.69250281  1.69254646  1.75054868  1.96324677
  1.96326565  1.97507324  2.03184397  2.03191054  2.03328823  2.07510993
  2.14351304  2.22347973  2.22354468  2.26736083  2.38521828  2.38528528
  2.43585934  2.44254306  2.46598962  2.62513928  2.66858017  2.66858638
  2.69461549  2.86153874  2.86157438  3.07437538  3.22608342  3.46194826
  3.67897236  3.67898417  3.71048121  4.31639743  4.38396973  4.38401477
  6.84139274  6.87498268  6.90245695  6.93706406  6.93708538  6.98096605
  7.0858051   7.09357845  7.09359542  7.34960912 10.94829655 11.16391848
 11.34241292 11.34242964 11.390726   11.79751331 12.06275953 12.06278967
 23.51983043 23.51983876 23.52476319 23.52476467 23.52685974 23.52897512
 23.53037569 23.53742068 23.54120387 23.54222173 23.54222561 23.54849204
 23.54849536 23.56659135 28.577583   28.58992619 28.60680055 28.62506741
 28.62507451 28.65291044 28.71214628 28.7121533  28.71252154 28.86393553
 41.33213831 41.33214872 41.38562748 41.82962669 42.18509602 42.18510821
 59.23915359 59.72360586]
  11 ( 0.333  0.000  0.667)   [-6.82464282e+01 -6.82464280e+01 -5.66294336e+00 -5.66161025e+00
 -3.75015432e+00 -3.74967217e+00 -3.74930715e+00 -3.74871647e+00
 -3.74782689e+00 -3.74775079e+00 -3.53868201e-01 -1.59167134e-01
  3.94850621e-02  2.32969918e-01] [ 0.45586259  0.68415552  0.71105693  0.73677917  0.74354088  0.7790167
  1.04234278  1.07133989  1.12591115  1.13428371  1.16540216  1.20689407
  1.23773734  1.27650175  1.38839548  1.40935049  1.44597778  1.45688003
  1.57630082  1.58878266  1.6478141   1.69817503  1.70219936  1.71298433
  1.90075418  1.9066734   2.07309784  2.08363335  2.08656339  2.11905002
  2.14808991  2.2167551   2.22436855  2.25844658  2.32348392  2.47566907
  2.4981033   2.58363809  2.58709163  2.61271363  2.66304094  2.70793052
  2.77662768  2.80217715  2.86269802  3.06962946  3.11508195  3.28458244
  3.29062583  3.42646608  3.90328096  3.9915768   4.09212795  4.14310861
  6.90289993  6.91832257  6.94220645  7.00809052  7.03639379  7.06838519
  7.07851837  7.12686721  7.13261834  7.18245321 10.96396881 11.16878652
 11.18294406 11.20695103 11.52917622 11.60846383 11.69934834 11.70827972
 23.52117914 23.52212528 23.52302748 23.52470583 23.52797882 23.53398016
 23.53598549 23.53808683 23.53811365 23.53940871 23.54252264 23.54504056
 23.54791557 23.559725   28.60385466 28.62073354 28.62654683 28.6675068
 28.6797097  28.69416351 28.70321515 28.72899065 28.73184813 28.76240469
 41.10037477 41.17890348 41.49069893 41.57207544 41.58922157 41.74953715
 59.42760044 60.10804925]
  12 ( 0.333  0.333  0.000)   [-6.82464365e+01 -6.82464257e+01 -5.66467477e+00 -5.66092681e+00
 -3.74972196e+00 -3.74968417e+00 -3.74918943e+00 -3.74878047e+00
 -3.74782205e+00 -3.74779333e+00 -5.45000256e-01  2.21662866e-03
  2.09875299e-01  2.10281563e-01] [ 0.40471539  0.48347117  0.75190929  0.75197776  0.85540492  0.87636423
  0.98901642  1.03259513  1.03265299  1.0711594   1.14304105  1.14837818
  1.14842204  1.2605151   1.42387874  1.49084204  1.52080141  1.52081517
  1.55883537  1.63265032  1.69250281  1.69254646  1.75054868  1.96324677
  1.96326565  1.97507324  2.03184397  2.03191054  2.03328823  2.07510993
  2.14351304  2.22347972  2.22354467  2.26736082  2.38521828  2.38528528
  2.43585934  2.44254306  2.46598962  2.62513928  2.66858017  2.66858638
  2.69461549  2.86153873  2.86157437  3.07437538  3.22608341  3.46194826
  3.67897234  3.67898416  3.71048121  4.31639742  4.38396972  4.38401476
  6.84139274  6.87498268  6.90245695  6.93706406  6.93708538  6.98096605
  7.0858051   7.09357845  7.09359542  7.34960912 10.94829655 11.16391848
 11.34241292 11.34242964 11.390726   11.79751331 12.06275953 12.06278967
 23.51983043 23.51983876 23.52476319 23.52476467 23.52685974 23.52897512
 23.53037569 23.53742068 23.54120387 23.54222173 23.54222561 23.54849204
 23.54849536 23.56659135 28.577583   28.58992619 28.60680055 28.62506741
 28.62507451 28.65291044 28.71214628 28.7121533  28.71252154 28.86393553
 41.33213831 41.33214872 41.38562748 41.82962669 42.18509602 42.18510821
 59.23915359 59.72360586]
  13 ( 0.333  0.333  0.333)   [-6.82464369e+01 -6.82464276e+01 -5.66524841e+00 -5.66087900e+00
 -3.74989536e+00 -3.74939142e+00 -3.74939142e+00 -3.74830279e+00
 -3.74786717e+00 -3.74786717e+00 -6.12725623e-01 -3.54636027e-02
  3.11324744e-01  3.11324744e-01] [ 0.4419694   0.56763752  0.56763752  0.76051685  0.79099683  0.79099683
  0.81515347  1.01598524  1.08052096  1.08052096  1.16172736  1.21649614
  1.21649614  1.33277816  1.48958986  1.48958986  1.50565891  1.59385613
  1.59385613  1.70571879  1.75411767  1.75411767  1.7652837   1.81496105
  1.81496105  1.8788613   1.8788613   1.97608922  2.14270385  2.14270385
  2.20214866  2.22475239  2.29094052  2.29231814  2.29231814  2.45285961
  2.48118992  2.48118992  2.55263464  2.62028696  2.62028697  2.73448998
  2.73448999  2.82906833  2.83247107  2.83247108  2.92354358  3.63244167
  3.80732578  3.80732579  4.03381139  4.1432799   4.26444794  4.26444794
  6.86705528  6.86705528  6.90190609  7.027758    7.027758    7.04124864
  7.04124864  7.18747703  7.22288909  7.22288909 10.69740851 11.30710947
 11.49735804 11.56397282 11.56397283 11.81148681 11.8501252  11.85012521
 23.51799373 23.52236312 23.52236312 23.52482944 23.52482944 23.52816971
 23.53048544 23.53153572 23.54078922 23.54078922 23.54315264 23.54315264
 23.54368052 23.55746554 28.58577291 28.58577291 28.60789848 28.67594451
 28.67594451 28.68232575 28.68232575 28.76876787 28.78631754 28.78631754
 41.47776628 41.60095043 41.60095043 41.67827524 41.91126157 41.91126157
 58.69016191 60.3948973 ]
  14 ( 0.333  0.333  0.667)   [-6.82464293e+01 -6.82464276e+01 -5.66296358e+00 -5.66159722e+00
 -3.75018054e+00 -3.74963585e+00 -3.74932372e+00 -3.74871900e+00
 -3.74779614e+00 -3.74777096e+00 -3.53460811e-01 -1.58937461e-01
  3.96017587e-02  2.33371860e-01] [ 0.45595269  0.68410674  0.71100138  0.73697286  0.74336636  0.77902138
  1.04238325  1.0713459   1.1258902   1.13429089  1.1653883   1.20700809
  1.2377364   1.27652502  1.38837638  1.4093784   1.44598873  1.45689648
  1.57630272  1.58877521  1.64782616  1.69811586  1.70216152  1.71290412
  1.90073634  1.90667858  2.0730722   2.08367414  2.08653743  2.11909954
  2.14809509  2.21678834  2.2243805   2.25839595  2.32350058  2.47565162
  2.49814912  2.58366067  2.587106    2.6127083   2.66301262  2.70793577
  2.77663833  2.80216921  2.86272709  3.0696117   3.11509156  3.28461424
  3.29054949  3.42650757  3.90325574  3.99159975  4.09217436  4.14304369
  6.90290101  6.91833476  6.94220328  7.00807594  7.03640179  7.06837336
  7.07852125  7.12684589  7.1326403   7.18245581 10.96398872 11.16888979
 11.18286328 11.20697253 11.5291641  11.60850754 11.69922871 11.70831126
 23.52117914 23.52213566 23.52302097 23.52470807 23.52798121 23.53398589
 23.53598852 23.5380868  23.53810866 23.53940047 23.54252075 23.54503252
 23.54791923 23.55972766 28.60385554 28.62073788 28.62654479 28.66750246
 28.67971321 28.69415772 28.70321826 28.72898356 28.73185444 28.76240572
 41.10036823 41.17891488 41.49068929 41.57207025 41.58922093 41.74954962
 59.42760099 60.10804803]
  15 ( 0.333  0.667  0.000)   [-6.82464282e+01 -6.82464280e+01 -5.66294336e+00 -5.66161025e+00
 -3.75015432e+00 -3.74967217e+00 -3.74930715e+00 -3.74871647e+00
 -3.74782689e+00 -3.74775079e+00 -3.53868201e-01 -1.59167134e-01
  3.94850621e-02  2.32969918e-01] [ 0.45586259  0.68415552  0.71105693  0.73677917  0.74354088  0.7790167
  1.04234278  1.07133989  1.12591115  1.13428371  1.16540216  1.20689407
  1.23773734  1.27650175  1.38839548  1.40935049  1.44597778  1.45688003
  1.57630082  1.58878265  1.6478141   1.69817502  1.70219936  1.71298433
  1.90075418  1.9066734   2.07309784  2.08363335  2.08656338  2.11905002
  2.14808991  2.2167551   2.22436855  2.25844658  2.32348392  2.47566907
  2.4981033   2.58363808  2.58709163  2.61271363  2.66304094  2.70793052
  2.77662768  2.80217714  2.86269802  3.06962944  3.11508195  3.28458244
  3.29062583  3.42646606  3.90328096  3.9915768   4.09212795  4.14310861
  6.90289993  6.91832257  6.94220645  7.00809052  7.03639379  7.06838519
  7.07851837  7.12686721  7.13261834  7.18245321 10.96396881 11.16878652
 11.18294406 11.20695103 11.52917622 11.60846383 11.69934834 11.70827972
 23.52117914 23.52212528 23.52302748 23.52470583 23.52797882 23.53398016
 23.53598549 23.53808683 23.53811365 23.53940871 23.54252264 23.54504056
 23.54791557 23.559725   28.60385466 28.62073354 28.62654683 28.6675068
 28.6797097  28.69416351 28.70321515 28.72899065 28.73184813 28.76240469
 41.10037477 41.17890348 41.49069893 41.57207544 41.58922157 41.74953715
 59.42760044 60.10804925]
  16 ( 0.333  0.667  0.333)   [-6.82464293e+01 -6.82464276e+01 -5.66296358e+00 -5.66159722e+00
 -3.75018054e+00 -3.74963585e+00 -3.74932372e+00 -3.74871900e+00
 -3.74779614e+00 -3.74777096e+00 -3.53460811e-01 -1.58937461e-01
  3.96017587e-02  2.33371860e-01] [ 0.45595269  0.68410674  0.71100138  0.73697286  0.74336636  0.77902138
  1.04238325  1.0713459   1.1258902   1.13429089  1.1653883   1.20700809
  1.2377364   1.27652502  1.38837638  1.4093784   1.44598873  1.45689648
  1.57630272  1.58877522  1.64782616  1.69811586  1.70216152  1.71290412
  1.90073634  1.90667858  2.0730722   2.08367414  2.08653743  2.11909954
  2.14809509  2.21678834  2.2243805   2.25839596  2.32350058  2.47565162
  2.49814912  2.58366069  2.587106    2.6127083   2.66301262  2.70793577
  2.77663833  2.80216922  2.86272709  3.0696117   3.11509157  3.28461424
  3.29054949  3.42650757  3.90325574  3.99159975  4.09217436  4.14304369
  6.90290101  6.91833476  6.94220328  7.00807594  7.03640179  7.06837337
  7.07852125  7.12684589  7.1326403   7.18245581 10.96398872 11.16888979
 11.18286328 11.20697253 11.5291641  11.60850754 11.69922871 11.70831126
 23.52117914 23.52213566 23.52302097 23.52470807 23.52798121 23.53398589
 23.53598852 23.5380868  23.53810866 23.53940047 23.54252075 23.54503252
 23.54791923 23.55972766 28.60385554 28.62073788 28.62654479 28.66750246
 28.67971321 28.69415772 28.70321826 28.72898356 28.73185444 28.76240572
 41.10036823 41.17891488 41.49068929 41.57207025 41.58922093 41.74954962
 59.42760099 60.10804803]
  17 ( 0.333  0.667  0.667)   [-6.82464293e+01 -6.82464276e+01 -5.66296358e+00 -5.66159722e+00
 -3.75018054e+00 -3.74963585e+00 -3.74932372e+00 -3.74871900e+00
 -3.74779614e+00 -3.74777096e+00 -3.53460811e-01 -1.58937461e-01
  3.96017587e-02  2.33371860e-01] [ 0.45595269  0.68410674  0.71100138  0.73697286  0.74336636  0.77902138
  1.04238325  1.0713459   1.1258902   1.13429089  1.1653883   1.20700809
  1.2377364   1.27652502  1.38837638  1.4093784   1.44598873  1.45689649
  1.57630272  1.58877521  1.64782616  1.69811586  1.70216152  1.71290412
  1.90073634  1.90667858  2.0730722   2.08367414  2.08653743  2.11909954
  2.14809509  2.21678834  2.22438049  2.25839596  2.32350058  2.47565162
  2.49814912  2.5836607   2.587106    2.6127083   2.66301261  2.70793577
  2.77663833  2.80216921  2.86272709  3.0696117   3.11509157  3.28461424
  3.29054949  3.42650757  3.90325574  3.99159975  4.09217436  4.14304369
  6.90290101  6.91833476  6.94220328  7.00807594  7.0364018   7.06837337
  7.07852125  7.12684589  7.1326403   7.18245581 10.96398872 11.16888979
 11.18286328 11.20697253 11.5291641  11.60850754 11.69922871 11.70831126
 23.52117914 23.52213566 23.52302097 23.52470807 23.52798121 23.53398589
 23.53598852 23.5380868  23.53810866 23.53940047 23.54252075 23.54503252
 23.54791923 23.55972766 28.60385554 28.62073788 28.62654479 28.66750246
 28.67971322 28.69415772 28.70321826 28.72898356 28.73185444 28.76240572
 41.10036822 41.17891488 41.49068929 41.57207025 41.58922093 41.74954962
 59.42760099 60.10804803]
  18 ( 0.667  0.000  0.000)   [-6.82464363e+01 -6.82464266e+01 -5.66523549e+00 -5.66087652e+00
 -3.74984284e+00 -3.74943777e+00 -3.74939301e+00 -3.74827275e+00
 -3.74790521e+00 -3.74786805e+00 -6.13615549e-01 -3.56739766e-02
  3.10673682e-01  3.11128035e-01] [ 0.4419612   0.56765488  0.56765593  0.76057433  0.79103807  0.79105669
  0.81511761  1.01575628  1.08047863  1.08048159  1.16169837  1.21649922
  1.21651494  1.33282071  1.48958922  1.48965934  1.50562299  1.59392238
  1.59393798  1.70569373  1.75410496  1.75411302  1.76537069  1.81487101
  1.81495373  1.87878121  1.87882229  1.97612283  2.1427222   2.14272378
  2.20217526  2.22467242  2.29100096  2.29230513  2.29233484  2.45282792
  2.4811511   2.48120336  2.55264091  2.62027042  2.62027816  2.73445899
  2.73451577  2.82908138  2.83243731  2.83245933  2.92354833  3.63251568
  3.80728145  3.80731003  4.03377157  4.14332267  4.26441248  4.26445109
  6.86703733  6.86706803  6.90192517  7.02775564  7.02776079  7.04123711
  7.04126101  7.18750794  7.22286565  7.22286569 10.69741826 11.30716904
 11.49731566 11.56394265 11.56396414 11.81152141 11.85009515 11.85013085
 23.51798104 23.52236092 23.5223696  23.52483338 23.524837   23.52815853
 23.53047269 23.53153351 23.54079036 23.54079267 23.54315223 23.5431604
 23.54369007 23.55746605 28.5857665  28.58577777 28.60790756 28.67594382
 28.67594893 28.6823224  28.68232432 28.76877767 28.78630912 28.78630995
 41.47778119 41.60093536 41.60094892 41.67829054 41.91124715 41.91126276
 58.69016185 60.39489785]
  19 ( 0.667  0.000  0.333)   [-6.82464282e+01 -6.82464280e+01 -5.66294336e+00 -5.66161025e+00
 -3.75015432e+00 -3.74967217e+00 -3.74930715e+00 -3.74871647e+00
 -3.74782689e+00 -3.74775079e+00 -3.53868201e-01 -1.59167134e-01
  3.94850621e-02  2.32969918e-01] [ 0.45586259  0.68415552  0.71105693  0.73677917  0.74354088  0.7790167
  1.04234278  1.07133989  1.12591115  1.13428371  1.16540216  1.20689407
  1.23773734  1.27650175  1.38839548  1.40935049  1.44597778  1.45688003
  1.57630082  1.58878266  1.6478141   1.69817503  1.70219936  1.71298433
  1.90075418  1.9066734   2.07309784  2.08363335  2.08656339  2.11905002
  2.14808991  2.2167551   2.22436855  2.25844658  2.32348392  2.47566907
  2.4981033   2.58363809  2.58709163  2.61271363  2.66304094  2.70793052
  2.77662768  2.80217715  2.86269802  3.06962946  3.11508195  3.28458244
  3.29062583  3.42646608  3.90328096  3.9915768   4.09212795  4.14310861
  6.90289993  6.91832257  6.94220645  7.00809052  7.03639379  7.06838519
  7.07851837  7.12686721  7.13261834  7.18245321 10.96396881 11.16878652
 11.18294406 11.20695103 11.52917622 11.60846383 11.69934834 11.70827972
 23.52117914 23.52212528 23.52302748 23.52470583 23.52797882 23.53398016
 23.53598549 23.53808683 23.53811365 23.53940871 23.54252264 23.54504056
 23.54791557 23.559725   28.60385466 28.62073354 28.62654683 28.6675068
 28.6797097  28.69416351 28.70321515 28.72899065 28.73184813 28.76240469
 41.10037477 41.17890348 41.49069893 41.57207544 41.58922157 41.74953715
 59.42760044 60.10804925]
  20 ( 0.667  0.000  0.667)   [-6.82464365e+01 -6.82464257e+01 -5.66467477e+00 -5.66092681e+00
 -3.74972196e+00 -3.74968417e+00 -3.74918943e+00 -3.74878047e+00
 -3.74782205e+00 -3.74779333e+00 -5.45000256e-01  2.21662867e-03
  2.09875299e-01  2.10281564e-01] [ 0.40471539  0.48347117  0.75190929  0.75197776  0.85540492  0.87636423
  0.98901642  1.03259513  1.03265299  1.0711594   1.14304105  1.14837818
  1.14842204  1.2605151   1.42387874  1.49084204  1.52080141  1.52081517
  1.55883537  1.63265032  1.69250281  1.69254646  1.75054868  1.96324677
  1.96326565  1.97507324  2.03184397  2.03191054  2.03328823  2.07510993
  2.14351303  2.22347973  2.22354468  2.26736083  2.38521827  2.38528528
  2.43585934  2.44254306  2.46598962  2.62513928  2.66858017  2.66858638
  2.69461549  2.86153874  2.86157438  3.07437538  3.22608342  3.46194826
  3.67897236  3.67898417  3.71048121  4.31639743  4.38396973  4.38401477
  6.84139274  6.87498268  6.90245695  6.93706406  6.93708538  6.98096605
  7.0858051   7.09357845  7.09359542  7.34960912 10.94829655 11.16391848
 11.34241292 11.34242964 11.390726   11.79751331 12.06275953 12.06278967
 23.51983043 23.51983876 23.52476319 23.52476467 23.52685974 23.52897512
 23.53037569 23.53742068 23.54120387 23.54222173 23.54222561 23.54849204
 23.54849536 23.56659135 28.57758301 28.58992619 28.60680055 28.62506741
 28.62507451 28.65291044 28.71214628 28.7121533  28.71252154 28.86393553
 41.3321383  41.33214872 41.38562748 41.82962669 42.18509602 42.18510821
 59.23915359 59.72360586]
  21 ( 0.667  0.333  0.000)   [-6.82464282e+01 -6.82464280e+01 -5.66294336e+00 -5.66161025e+00
 -3.75015432e+00 -3.74967217e+00 -3.74930715e+00 -3.74871647e+00
 -3.74782689e+00 -3.74775079e+00 -3.53868201e-01 -1.59167134e-01
  3.94850621e-02  2.32969918e-01] [ 0.45586259  0.68415552  0.71105693  0.73677917  0.74354088  0.7790167
  1.04234278  1.07133989  1.12591115  1.13428371  1.16540216  1.20689407
  1.23773734  1.27650175  1.38839548  1.40935049  1.44597778  1.45688003
  1.57630082  1.58878266  1.6478141   1.69817503  1.70219936  1.71298433
  1.90075418  1.9066734   2.07309784  2.08363335  2.08656338  2.11905002
  2.14808991  2.2167551   2.22436855  2.25844658  2.32348392  2.47566907
  2.4981033   2.58363809  2.58709163  2.61271363  2.66304094  2.70793052
  2.77662768  2.80217714  2.86269802  3.06962945  3.11508195  3.28458244
  3.29062583  3.42646607  3.90328096  3.9915768   4.09212795  4.14310861
  6.90289993  6.91832257  6.94220645  7.00809052  7.03639379  7.06838519
  7.07851837  7.12686721  7.13261834  7.18245321 10.96396881 11.16878652
 11.18294406 11.20695103 11.52917622 11.60846383 11.69934834 11.70827972
 23.52117914 23.52212528 23.52302748 23.52470583 23.52797882 23.53398016
 23.53598549 23.53808683 23.53811365 23.53940871 23.54252264 23.54504056
 23.54791557 23.559725   28.60385466 28.62073354 28.62654683 28.6675068
 28.6797097  28.69416351 28.70321515 28.72899065 28.73184813 28.76240469
 41.10037477 41.17890348 41.49069893 41.57207544 41.58922157 41.74953715
 59.42760044 60.10804925]
  22 ( 0.667  0.333  0.333)   [-6.82464293e+01 -6.82464276e+01 -5.66296358e+00 -5.66159722e+00
 -3.75018054e+00 -3.74963585e+00 -3.74932372e+00 -3.74871900e+00
 -3.74779614e+00 -3.74777096e+00 -3.53460811e-01 -1.58937461e-01
  3.96017587e-02  2.33371860e-01] [ 0.45595269  0.68410674  0.71100138  0.73697286  0.74336636  0.77902138
  1.04238325  1.0713459   1.1258902   1.13429089  1.1653883   1.20700809
  1.2377364   1.27652502  1.38837638  1.4093784   1.44598873  1.45689648
  1.57630272  1.58877521  1.64782616  1.69811586  1.70216152  1.71290412
  1.90073634  1.90667858  2.0730722   2.08367414  2.08653743  2.11909954
  2.14809509  2.21678834  2.2243805   2.25839596  2.32350058  2.47565162
  2.49814912  2.58366069  2.587106    2.6127083   2.66301261  2.70793577
  2.77663833  2.80216921  2.86272709  3.0696117   3.11509157  3.28461424
  3.29054949  3.42650757  3.90325574  3.99159975  4.09217436  4.14304369
  6.90290101  6.91833476  6.94220328  7.00807594  7.03640179  7.06837337
  7.07852125  7.12684589  7.1326403   7.18245581 10.96398872 11.16888979
 11.18286328 11.20697253 11.5291641  11.60850754 11.69922871 11.70831126
 23.52117914 23.52213566 23.52302097 23.52470807 23.52798121 23.53398589
 23.53598852 23.5380868  23.53810866 23.53940047 23.54252075 23.54503252
 23.54791923 23.55972766 28.60385554 28.62073788 28.62654479 28.66750246
 28.67971321 28.69415772 28.70321826 28.72898356 28.73185444 28.76240572
 41.10036823 41.17891488 41.49068929 41.57207025 41.58922093 41.74954962
 59.42760099 60.10804803]
  23 ( 0.667  0.333  0.667)   [-6.82464293e+01 -6.82464276e+01 -5.66296358e+00 -5.66159722e+00
 -3.75018054e+00 -3.74963585e+00 -3.74932372e+00 -3.74871900e+00
 -3.74779614e+00 -3.74777096e+00 -3.53460811e-01 -1.58937461e-01
  3.96017587e-02  2.33371860e-01] [ 0.45595269  0.68410674  0.71100138  0.73697286  0.74336636  0.77902138
  1.04238325  1.0713459   1.1258902   1.13429089  1.1653883   1.20700809
  1.2377364   1.27652502  1.38837638  1.4093784   1.44598873  1.45689649
  1.57630272  1.58877522  1.64782616  1.69811586  1.70216152  1.71290412
  1.90073634  1.90667858  2.0730722   2.08367414  2.08653743  2.11909954
  2.14809509  2.21678834  2.22438049  2.25839596  2.32350058  2.47565162
  2.49814912  2.5836607   2.587106    2.6127083   2.66301262  2.70793577
  2.77663833  2.80216922  2.86272709  3.0696117   3.11509157  3.28461424
  3.29054949  3.42650757  3.90325574  3.99159976  4.09217436  4.14304369
  6.90290101  6.91833476  6.94220328  7.00807594  7.0364018   7.06837337
  7.07852125  7.12684589  7.1326403   7.18245581 10.96398872 11.16888979
 11.18286328 11.20697253 11.5291641  11.60850754 11.69922871 11.70831126
 23.52117914 23.52213566 23.52302097 23.52470807 23.52798121 23.53398589
 23.53598852 23.5380868  23.53810866 23.53940047 23.54252075 23.54503252
 23.54791923 23.55972766 28.60385554 28.62073788 28.62654479 28.66750246
 28.67971322 28.69415772 28.70321826 28.72898356 28.73185444 28.76240572
 41.10036823 41.17891488 41.49068929 41.57207025 41.58922093 41.74954962
 59.42760099 60.10804803]
  24 ( 0.667  0.667  0.000)   [-6.82464365e+01 -6.82464257e+01 -5.66467477e+00 -5.66092681e+00
 -3.74972196e+00 -3.74968417e+00 -3.74918943e+00 -3.74878047e+00
 -3.74782205e+00 -3.74779333e+00 -5.45000256e-01  2.21662867e-03
  2.09875299e-01  2.10281564e-01] [ 0.40471539  0.48347117  0.75190929  0.75197776  0.85540492  0.87636423
  0.98901642  1.03259513  1.03265299  1.0711594   1.14304105  1.14837818
  1.14842204  1.2605151   1.42387874  1.49084204  1.52080141  1.52081517
  1.55883537  1.63265032  1.69250281  1.69254646  1.75054868  1.96324677
  1.96326565  1.97507324  2.03184397  2.03191054  2.03328823  2.07510993
  2.14351303  2.22347973  2.22354467  2.26736083  2.38521827  2.38528528
  2.43585934  2.44254306  2.46598962  2.62513928  2.66858017  2.66858638
  2.69461549  2.86153873  2.86157437  3.07437538  3.22608341  3.46194826
  3.67897235  3.67898416  3.71048121  4.31639742  4.38396972  4.38401476
  6.84139274  6.87498268  6.90245695  6.93706406  6.93708538  6.98096605
  7.0858051   7.09357845  7.09359542  7.34960912 10.94829655 11.16391848
 11.34241292 11.34242964 11.390726   11.79751331 12.06275953 12.06278967
 23.51983043 23.51983876 23.52476319 23.52476467 23.52685974 23.52897512
 23.53037569 23.53742068 23.54120387 23.54222173 23.54222561 23.54849204
 23.54849536 23.56659135 28.57758301 28.58992619 28.60680055 28.62506741
 28.62507451 28.65291044 28.71214628 28.7121533  28.71252154 28.86393553
 41.3321383  41.33214872 41.38562748 41.82962669 42.18509602 42.18510821
 59.23915359 59.72360586]
  25 ( 0.667  0.667  0.333)   [-6.82464293e+01 -6.82464276e+01 -5.66296358e+00 -5.66159722e+00
 -3.75018054e+00 -3.74963585e+00 -3.74932372e+00 -3.74871900e+00
 -3.74779614e+00 -3.74777096e+00 -3.53460811e-01 -1.58937461e-01
  3.96017587e-02  2.33371860e-01] [ 0.45595269  0.68410674  0.71100138  0.73697286  0.74336636  0.77902138
  1.04238325  1.0713459   1.1258902   1.13429089  1.1653883   1.20700809
  1.2377364   1.27652502  1.38837638  1.4093784   1.44598873  1.45689649
  1.57630272  1.58877521  1.64782616  1.69811586  1.70216152  1.71290412
  1.90073634  1.90667858  2.0730722   2.08367414  2.08653743  2.11909954
  2.14809508  2.21678834  2.22438049  2.25839595  2.32350058  2.47565162
  2.49814912  2.58366068  2.587106    2.6127083   2.66301262  2.70793577
  2.77663833  2.80216921  2.86272709  3.0696117   3.11509156  3.28461424
  3.29054948  3.42650757  3.90325574  3.99159976  4.09217436  4.14304369
  6.90290101  6.91833476  6.94220328  7.00807594  7.0364018   7.06837336
  7.07852125  7.12684589  7.1326403   7.18245581 10.96398872 11.16888979
 11.18286328 11.20697253 11.5291641  11.60850754 11.69922871 11.70831126
 23.52117914 23.52213566 23.52302097 23.52470807 23.52798121 23.53398589
 23.53598852 23.5380868  23.53810866 23.53940047 23.54252075 23.54503252
 23.54791923 23.55972766 28.60385554 28.62073788 28.62654479 28.66750246
 28.67971322 28.69415772 28.70321826 28.72898356 28.73185444 28.76240572
 41.10036823 41.17891488 41.49068929 41.57207025 41.58922093 41.74954962
 59.42760099 60.10804803]
  26 ( 0.667  0.667  0.667)   [-6.82464369e+01 -6.82464276e+01 -5.66524841e+00 -5.66087900e+00
 -3.74989536e+00 -3.74939142e+00 -3.74939142e+00 -3.74830279e+00
 -3.74786717e+00 -3.74786717e+00 -6.12725623e-01 -3.54636027e-02
  3.11324744e-01  3.11324744e-01] [ 0.4419694   0.56763752  0.56763752  0.76051685  0.79099683  0.79099683
  0.81515347  1.01598524  1.08052096  1.08052096  1.16172736  1.21649614
  1.21649614  1.33277817  1.48958986  1.48958986  1.50565891  1.59385613
  1.59385613  1.70571879  1.75411767  1.75411767  1.7652837   1.81496105
  1.81496105  1.8788613   1.8788613   1.97608922  2.14270385  2.14270385
  2.20214866  2.22475239  2.29094052  2.29231814  2.29231814  2.45285961
  2.48118992  2.48118992  2.55263464  2.62028696  2.62028697  2.73448998
  2.73448999  2.82906834  2.83247107  2.83247108  2.92354358  3.63244166
  3.80732578  3.80732579  4.03381139  4.1432799   4.26444794  4.26444794
  6.86705528  6.86705528  6.90190609  7.02775801  7.02775801  7.04124864
  7.04124864  7.18747703  7.22288909  7.22288909 10.69740851 11.30710947
 11.49735804 11.56397282 11.56397282 11.81148681 11.8501252  11.8501252
 23.51799373 23.52236312 23.52236312 23.52482944 23.52482944 23.52816971
 23.53048544 23.53153572 23.54078922 23.54078922 23.54315264 23.54315264
 23.54368052 23.55746554 28.58577292 28.58577292 28.60789848 28.67594452
 28.67594452 28.68232575 28.68232575 28.76876787 28.78631754 28.78631754
 41.47776627 41.60095043 41.60095043 41.67827524 41.91126157 41.91126157
 58.69016191 60.3948973 ]
    CPU time for get_k_kpts: make_kpt ki>=kj (0,*)      4.05 sec, wall time      0.14 sec
    CPU time for get_k_kpts: make_kpt ki>=kj (1,*)     11.45 sec, wall time      0.36 sec
    CPU time for get_k_kpts: make_kpt ki>=kj (2,*)     18.19 sec, wall time      0.57 sec
    CPU time for get_k_kpts: make_kpt ki>=kj (3,*)     24.97 sec, wall time      0.78 sec
    CPU time for get_k_kpts: make_kpt ki>=kj (4,*)     31.83 sec, wall time      1.00 sec
    CPU time for get_k_kpts: make_kpt ki>=kj (5,*)     37.04 sec, wall time      1.16 sec
    CPU time for get_k_kpts: make_kpt ki>=kj (6,*)     44.07 sec, wall time      1.38 sec
    CPU time for get_k_kpts: make_kpt ki>=kj (7,*)     50.02 sec, wall time      1.57 sec
    CPU time for get_k_kpts: make_kpt ki>=kj (8,*)     57.88 sec, wall time      1.82 sec
    CPU time for get_k_kpts: make_kpt ki>=kj (9,*)     66.52 sec, wall time      2.09 sec
    CPU time for get_k_kpts: make_kpt ki>=kj (10,*)     70.45 sec, wall time      2.22 sec
    CPU time for get_k_kpts: make_kpt ki>=kj (11,*)     76.48 sec, wall time      2.40 sec
    CPU time for get_k_kpts: make_kpt ki>=kj (12,*)     85.67 sec, wall time      2.71 sec
    CPU time for get_k_kpts: make_kpt ki>=kj (13,*)     89.59 sec, wall time      2.81 sec
    CPU time for get_k_kpts: make_kpt ki>=kj (14,*)     97.79 sec, wall time      3.07 sec
    CPU time for get_k_kpts: make_kpt ki>=kj (15,*)    114.31 sec, wall time      3.63 sec
    CPU time for get_k_kpts: make_kpt ki>=kj (16,*)    111.14 sec, wall time      3.49 sec
    CPU time for get_k_kpts: make_kpt ki>=kj (17,*)    116.99 sec, wall time      3.67 sec
    CPU time for get_k_kpts: make_kpt ki>=kj (18,*)    121.34 sec, wall time      3.81 sec
    CPU time for get_k_kpts: make_kpt ki>=kj (19,*)    129.00 sec, wall time      4.05 sec
    CPU time for get_k_kpts: make_kpt ki>=kj (20,*)    133.62 sec, wall time      4.19 sec
    CPU time for get_k_kpts: make_kpt ki>=kj (21,*)    143.75 sec, wall time      4.51 sec
    CPU time for get_k_kpts: make_kpt ki>=kj (22,*)    146.59 sec, wall time      4.60 sec
    CPU time for get_k_kpts: make_kpt ki>=kj (23,*)    153.14 sec, wall time      4.80 sec
    CPU time for get_k_kpts: make_kpt ki>=kj (24,*)    159.44 sec, wall time      5.00 sec
    CPU time for get_k_kpts: make_kpt ki>=kj (25,*)    164.81 sec, wall time      5.17 sec
    CPU time for get_k_kpts: make_kpt ki>=kj (26,*)    172.29 sec, wall time      5.40 sec
Monkhorst pack size [3 3 3] ew_eta 1.379780863988 ew_cut 5.096557435665055
Ewald components = 0, -0.778571064310922, 0.704115632351815
    CPU time for get_j pass 1     55.53 sec, wall time      2.18 sec
    CPU time for get_j pass 2      5.18 sec, wall time      1.47 sec
    CPU time for vj and vk   2496.70 sec, wall time     80.18 sec
Ewald components = 1.37780080874323e-135, -879.68906505185, 776.814472849255
E1 = (-608.215334307495+3.1603481392567365e-15j)  E_coul = (133.17716073053907-4.3406880263941873e-16j)
cycle= 1 E= -577.912765779551  delta_E= 0.72  |g|= 0.961  |ddm|= 18.3
    CPU time for cycle= 1   2499.86 sec, wall time     80.73 sec
diis-norm(errvec)=3.17255
diis-c [-10.06508935+0.j   1.        +0.j]
HOMO = 0.2027238743  LUMO = 0.452395292713
     k-point                  mo_energy
   0 ( 0.000  0.000  0.000)   [-68.34111244 -68.34110715  -5.67904592  -5.67849415  -3.7830707
  -3.78306773  -3.78306773  -3.78241736  -3.7824144   -3.7824144
  -0.42307978   0.20266695   0.20272387   0.20272387] [ 0.53849042  0.53852759  0.53852759  0.59678748  0.76451958  0.77316857
  0.77316857  0.92769341  0.92769553  0.92769553  1.04742454  1.45077699
  1.45077782  1.45077782  1.49666331  1.49666331  1.5408117   1.54082803
  1.54082803  1.676812    1.67681536  1.67681536  1.88654986  1.88655015
  1.88655015  2.04951457  2.04951457  2.16258904  2.16258904  2.16259427
  2.23864142  2.23864142  2.24928061  2.28119483  2.28119483  2.28119638
  2.35931005  2.39593892  2.39593892  2.39594258  2.42807355  2.42807527
  2.42807527  2.54339677  3.10735761  3.10735761  3.10735897  3.38182413
  3.59330436  3.5933148   3.5933148   4.33721712  4.33722164  4.33722164
  6.84079272  6.84079272  6.89133899  6.89133899  6.89134298  6.92868274
  6.92868274  7.48016496  7.48016496  7.48016603 10.38085946 11.04431854
 11.41750524 11.41750833 11.41750833 11.84638231 11.84638259 11.84638259
 23.48481662 23.48482065 23.48482065 23.49681392 23.49681494 23.49681494
 23.49704481 23.49762726 23.49762836 23.49762836 23.50099591 23.50099993
 23.50099993 23.51690169 28.53973338 28.53973338 28.56673607 28.56673607
 28.56673784 28.59234485 28.59234485 28.89490919 28.89490919 28.89491088
 41.38694605 41.38694605 41.38694761 41.86972532 41.86972532 41.86972745
 58.01539731 59.49436142]
   1 (-0.000 -0.000  0.333)   [-6.83411120e+01 -6.83411086e+01 -5.67896249e+00 -5.67859639e+00
 -3.78313814e+00 -3.78313548e+00 -3.78306743e+00 -3.78244102e+00
 -3.78237166e+00 -3.78236902e+00 -3.50785274e-01 -6.26396506e-02
  1.55335559e-01  1.55392550e-01] [ 0.50736667  0.5824754   0.58248117  0.77281296  0.78611743  0.78612258
  0.83092968  1.02277414  1.08618539  1.08619394  1.17083345  1.21621416
  1.21621636  1.32695713  1.49592925  1.49592934  1.50912234  1.60030209
  1.60031555  1.71137259  1.75685941  1.75686495  1.7696782   1.81447167
  1.81447203  1.88016089  1.88016444  1.97577462  2.14904305  2.14904446
  2.20565804  2.22876374  2.29283781  2.29283897  2.29468644  2.46058851
  2.48090839  2.48090839  2.5518574   2.62052033  2.62052256  2.73659352
  2.73659375  2.82922235  2.8352412   2.83524463  2.9236474   3.63382124
  3.80377695  3.80377859  4.02915604  4.14035218  4.26007143  4.26007229
  6.84441404  6.84441554  6.88038393  7.00630212  7.00630253  7.01952635
  7.01952797  7.16660909  7.20186142  7.20186307 10.67762581 11.28411929
[...]
  16 ( 0.333  0.667  0.333)   [-6.83092855e+01 -6.83092842e+01 -5.65894795e+00 -5.65880191e+00
 -3.76530761e+00 -3.76525659e+00 -3.76492000e+00 -3.76464782e+00
 -3.76431778e+00 -3.76427745e+00 -2.44514091e-01 -1.40293687e-01
 -3.61369960e-03  9.65183535e-02] [ 0.50172107  0.67493855  0.73663617  0.75989392  0.76684918  0.78190701
  1.04224055  1.06975496  1.14130535  1.14740158  1.17942157  1.21976917
  1.25192675  1.27652828  1.39551633  1.41324657  1.44897836  1.45606276
  1.5786451   1.58489198  1.65318893  1.69263117  1.7134592   1.72478606
  1.90448309  1.913873    2.07811246  2.09478183  2.09736411  2.12771798
  2.14810002  2.22286916  2.23417045  2.26262538  2.32867581  2.48853445
  2.5051657   2.58290749  2.59426909  2.62285889  2.67331215  2.71909703
  2.78684313  2.80650049  2.86815473  3.07132768  3.11912967  3.29150936
  3.29682354  3.42625021  3.90880437  3.99651089  4.09466424  4.15152139
  6.89520533  6.91108757  6.93543455  7.00182443  7.02982957  7.06145495
  7.072637    7.11990206  7.12487327  7.17561058 10.95922034 11.1635771
 11.17374413 11.19651762 11.51759841 11.59751471 11.69052794 11.69632737
 23.5062186  23.50720158 23.50805897 23.50974328 23.51298773 23.51906193
 23.52102492 23.52316769 23.52322901 23.52449003 23.52754284 23.53013932
 23.53295827 23.54484214 28.58147521 28.59837252 28.60425772 28.64533809
 28.65748705 28.67192793 28.68102366 28.70681094 28.70957173 28.7402328
 41.06456191 41.14318605 41.45488658 41.53622791 41.55334941 41.71347935
 59.39372412 60.07391181]
  17 ( 0.333  0.667  0.667)   [-6.83092855e+01 -6.83092842e+01 -5.65894795e+00 -5.65880190e+00
 -3.76530761e+00 -3.76525659e+00 -3.76492000e+00 -3.76464782e+00
 -3.76431778e+00 -3.76427745e+00 -2.44514091e-01 -1.40293687e-01
 -3.61369960e-03  9.65183535e-02] [ 0.50172107  0.67493855  0.73663617  0.75989392  0.76684918  0.78190701
  1.04224055  1.06975496  1.14130535  1.14740158  1.17942157  1.21976917
  1.25192675  1.27652828  1.39551633  1.41324657  1.44897836  1.45606276
  1.5786451   1.58489198  1.65318893  1.69263117  1.7134592   1.72478606
  1.90448309  1.91387299  2.07811245  2.09478183  2.0973641   2.12771798
  2.14810002  2.22286916  2.23417045  2.26262538  2.32867582  2.48853446
  2.5051657   2.5829075   2.59426909  2.62285889  2.67331215  2.71909703
  2.78684313  2.80650048  2.86815473  3.07132768  3.11912967  3.29150936
  3.29682354  3.42625021  3.90880436  3.99651089  4.09466425  4.15152139
  6.89520533  6.91108758  6.93543455  7.00182443  7.02982957  7.06145495
  7.072637    7.11990206  7.12487327  7.17561058 10.95922034 11.1635771
 11.17374413 11.19651762 11.51759841 11.59751471 11.69052793 11.69632737
 23.5062186  23.50720158 23.50805897 23.50974328 23.51298773 23.51906193
 23.52102492 23.52316769 23.52322901 23.52449003 23.52754284 23.53013932
 23.53295827 23.54484214 28.58147521 28.59837252 28.60425772 28.64533809
 28.65748705 28.67192793 28.68102366 28.70681094 28.70957173 28.7402328
 41.06456191 41.14318605 41.45488658 41.53622791 41.55334941 41.71347935
 59.39372412 60.07391181]
  18 ( 0.667  0.000  0.000)   [-6.83092864e+01 -6.83092829e+01 -5.65906136e+00 -5.65867776e+00
 -3.76519424e+00 -3.76519424e+00 -3.76511870e+00 -3.76444779e+00
 -3.76436473e+00 -3.76436473e+00 -3.43566921e-01 -5.95665860e-02
  1.48371527e-01  1.48371577e-01] [ 0.52160435  0.59136919  0.5913692   0.77349554  0.78989064  0.78989066
  0.83725657  1.02662351  1.09134639  1.0913464   1.17567292  1.21729501
  1.21729501  1.32220299  1.50234093  1.50234093  1.51335644  1.60635013
  1.60635016  1.71627263  1.76069093  1.76069095  1.7760149   1.81670658
  1.81670661  1.88394424  1.88394428  1.9763364   2.15505733  2.15505734
  2.20933543  2.23177778  2.29727144  2.29727145  2.29975364  2.46994531
  2.48307851  2.48307854  2.55446901  2.62337081  2.62337082  2.73982491
  2.73982493  2.83300557  2.84113109  2.8411311   2.93039073  3.64193868
  3.8121141   3.81211411  4.03414158  4.14791489  4.26826246  4.26826247
  6.85886166  6.85886167  6.89528483  7.02086553  7.02086553  7.03395571
  7.03395571  7.18113385  7.2162224   7.2162224  10.69471226 11.30057236
 11.48763005 11.55392769 11.55392769 11.80301527 11.83883254 11.83883254
 23.50306024 23.50742091 23.50742091 23.50985797 23.50985797 23.51323309
 23.51555137 23.51655094 23.52581407 23.52581407 23.52821631 23.52821632
 23.52880258 23.54262436 28.56343877 28.56343877 28.58571071 28.65365823
 28.65365823 28.65997708 28.65997708 28.74665259 28.76410761 28.76410761
 41.44202589 41.56527185 41.56527185 41.64241727 41.8753389  41.87533891
 58.65644591 60.36080643]
  19 ( 0.667  0.000  0.333)   [-6.83092855e+01 -6.83092842e+01 -5.65894795e+00 -5.65880191e+00
 -3.76530761e+00 -3.76525659e+00 -3.76492000e+00 -3.76464781e+00
 -3.76431778e+00 -3.76427745e+00 -2.44514079e-01 -1.40293743e-01
 -3.61355389e-03  9.65183321e-02] [ 0.50172101  0.67493853  0.73663613  0.7598939   0.7668492   0.78190703
  1.04224055  1.069755    1.14130535  1.14740158  1.17942158  1.21976919
  1.25192674  1.27652827  1.39551632  1.41324658  1.44897833  1.45606274
  1.57864511  1.58489203  1.65318893  1.69263116  1.71345918  1.72478602
  1.90448309  1.91387302  2.07811246  2.09478185  2.09736413  2.12771801
  2.14810002  2.22286916  2.23417046  2.26262536  2.32867582  2.48853445
  2.50516571  2.58290745  2.59426909  2.6228589   2.67331213  2.71909704
  2.78684314  2.80650049  2.86815474  3.07132768  3.11912967  3.29150935
  3.29682352  3.42625022  3.90880436  3.99651091  4.09466426  4.15152135
  6.89520533  6.91108758  6.93543455  7.00182443  7.02982957  7.06145495
  7.07263699  7.11990206  7.12487327  7.17561058 10.95922035 11.16357714
 11.1737441  11.19651762 11.5175984  11.59751473 11.69052789 11.69632738
 23.5062186  23.50720158 23.50805897 23.50974328 23.51298773 23.51906193
 23.52102492 23.52316769 23.52322901 23.52449003 23.52754284 23.53013931
 23.53295827 23.54484214 28.58147521 28.59837252 28.60425772 28.64533809
 28.65748705 28.67192793 28.68102366 28.70681093 28.70957173 28.7402328
 41.06456191 41.14318605 41.45488658 41.5362279  41.55334941 41.71347935
 59.39372412 60.07391181]
  20 ( 0.667  0.000  0.667)   [-6.83092861e+01 -6.83092834e+01 -5.65901520e+00 -5.65872875e+00
 -3.76525942e+00 -3.76525942e+00 -3.76496157e+00 -3.76460417e+00
 -3.76431164e+00 -3.76431164e+00 -3.15622429e-01 -4.51192762e-02
  8.16451573e-02  8.16451842e-02] [ 0.46281876  0.51937052  0.76587061  0.76587062  0.87302127  0.89167511
  0.99152828  1.04284659  1.04284661  1.06436062  1.14804441  1.14869869
  1.14869871  1.27890122  1.43413086  1.4942717   1.5245411   1.52454111
  1.55930615  1.64598124  1.70471747  1.70471749  1.75211929  1.96814147
  1.9681415   1.98580523  2.03881449  2.04242941  2.04242943  2.08544364
  2.15033464  2.22350221  2.22350224  2.26680769  2.38786802  2.38786805
  2.44762659  2.45014267  2.47445933  2.63476348  2.67877277  2.67877278
  2.69139084  2.87320176  2.87320177  3.07173409  3.22919873  3.47162847
  3.68515072  3.68515073  3.71902309  4.32248574  4.38702619  4.38702621
  6.83365165  6.86705465  6.89501174  6.92947006  6.92947006  6.9733533
  7.07810035  7.08774965  7.08774965  7.34274311 10.94576951 11.16015809
 11.33205355 11.33205355 11.38017747 11.78704318 12.05170816 12.05170817
 23.5049027  23.5049027  23.50978632 23.50978632 23.51188625 23.5140587
 23.51541553 23.52250423 23.52635879 23.5272715  23.5272715  23.53352634
 23.53352634 23.55172437 28.55525425 28.56751642 28.58441356 28.60280465
 28.60280465 28.63052193 28.69004555 28.69004555 28.69018371 28.84178072
 41.29644915 41.29644915 41.34979493 41.79393411 42.14917576 42.14917576
 59.20528498 59.68957812]
  21 ( 0.667  0.333  0.000)   [-6.83092855e+01 -6.83092842e+01 -5.65894795e+00 -5.65880191e+00
 -3.76530761e+00 -3.76525659e+00 -3.76492000e+00 -3.76464781e+00
 -3.76431778e+00 -3.76427745e+00 -2.44514079e-01 -1.40293743e-01
 -3.61355389e-03  9.65183321e-02] [ 0.50172101  0.67493853  0.73663613  0.7598939   0.7668492   0.78190703
  1.04224055  1.069755    1.14130535  1.14740158  1.17942158  1.21976919
  1.25192674  1.27652827  1.39551632  1.41324658  1.44897833  1.45606274
  1.57864511  1.58489203  1.65318893  1.69263115  1.71345917  1.72478602
  1.90448309  1.91387302  2.07811246  2.09478185  2.09736412  2.12771801
  2.14810002  2.22286916  2.23417046  2.26262536  2.32867582  2.48853445
  2.50516571  2.58290744  2.59426909  2.6228589   2.67331213  2.71909704
  2.78684314  2.80650048  2.86815474  3.07132767  3.11912967  3.29150935
  3.29682352  3.4262502   3.90880436  3.99651091  4.09466426  4.15152135
  6.89520533  6.91108758  6.93543455  7.00182443  7.02982957  7.06145495
  7.07263699  7.11990206  7.12487327  7.17561058 10.95922035 11.16357714
 11.1737441  11.19651762 11.5175984  11.59751473 11.69052789 11.69632738
 23.5062186  23.50720158 23.50805897 23.50974328 23.51298773 23.51906193
 23.52102492 23.52316769 23.52322901 23.52449003 23.52754284 23.53013931
 23.53295827 23.54484214 28.58147521 28.59837252 28.60425772 28.64533809
 28.65748705 28.67192793 28.68102366 28.70681093 28.70957173 28.7402328
 41.06456191 41.14318605 41.45488658 41.5362279  41.55334941 41.71347935
 59.39372412 60.07391181]
  22 ( 0.667  0.333  0.333)   [-6.83092855e+01 -6.83092842e+01 -5.65894795e+00 -5.65880191e+00
 -3.76530761e+00 -3.76525659e+00 -3.76492000e+00 -3.76464782e+00
 -3.76431778e+00 -3.76427745e+00 -2.44514091e-01 -1.40293687e-01
 -3.61369960e-03  9.65183535e-02] [ 0.50172107  0.67493855  0.73663617  0.75989392  0.76684918  0.78190701
  1.04224055  1.06975496  1.14130535  1.14740158  1.17942157  1.21976917
  1.25192676  1.27652828  1.39551633  1.41324657  1.44897836  1.45606276
  1.5786451   1.58489198  1.65318893  1.69263117  1.7134592   1.72478606
  1.90448309  1.91387299  2.07811245  2.09478183  2.09736411  2.12771798
  2.14810002  2.22286916  2.23417045  2.26262538  2.32867581  2.48853445
  2.5051657   2.58290749  2.59426909  2.62285889  2.67331215  2.71909703
  2.78684313  2.80650048  2.86815473  3.07132768  3.11912967  3.29150936
  3.29682354  3.42625021  3.90880436  3.99651089  4.09466425  4.15152139
  6.89520533  6.91108757  6.93543455  7.00182443  7.02982957  7.06145495
  7.072637    7.11990206  7.12487327  7.17561058 10.95922034 11.1635771
 11.17374413 11.19651762 11.51759841 11.59751471 11.69052793 11.69632737
 23.5062186  23.50720158 23.50805897 23.50974328 23.51298773 23.51906193
 23.52102492 23.52316769 23.52322901 23.52449003 23.52754284 23.53013932
 23.53295827 23.54484214 28.58147521 28.59837252 28.60425772 28.64533809
 28.65748705 28.67192793 28.68102366 28.70681094 28.70957173 28.7402328
 41.06456191 41.14318605 41.45488658 41.53622791 41.55334941 41.71347935
 59.39372412 60.07391181]
  23 ( 0.667  0.333  0.667)   [-6.83092855e+01 -6.83092842e+01 -5.65894795e+00 -5.65880191e+00
 -3.76530761e+00 -3.76525659e+00 -3.76492000e+00 -3.76464782e+00
 -3.76431778e+00 -3.76427745e+00 -2.44514091e-01 -1.40293687e-01
 -3.61369960e-03  9.65183535e-02] [ 0.50172107  0.67493855  0.73663617  0.75989392  0.76684918  0.78190701
  1.04224055  1.06975496  1.14130535  1.14740158  1.17942157  1.21976917
  1.25192675  1.27652828  1.39551633  1.41324657  1.44897836  1.45606276
  1.5786451   1.58489198  1.65318893  1.69263117  1.7134592   1.72478606
  1.90448309  1.91387299  2.07811246  2.09478183  2.0973641   2.12771798
  2.14810002  2.22286916  2.23417045  2.26262538  2.32867582  2.48853446
  2.5051657   2.58290749  2.59426909  2.62285889  2.67331215  2.71909703
  2.78684313  2.80650049  2.86815473  3.07132767  3.11912967  3.29150936
  3.29682354  3.42625021  3.90880437  3.9965109   4.09466424  4.15152139
  6.89520533  6.91108758  6.93543455  7.00182443  7.02982957  7.06145495
  7.072637    7.11990206  7.12487327  7.17561058 10.95922034 11.1635771
 11.17374413 11.19651762 11.51759841 11.59751471 11.69052794 11.69632737
 23.5062186  23.50720158 23.50805897 23.50974328 23.51298773 23.51906193
 23.52102492 23.52316769 23.52322901 23.52449003 23.52754284 23.53013932
 23.53295827 23.54484214 28.58147521 28.59837252 28.60425772 28.64533809
 28.65748705 28.67192793 28.68102366 28.70681094 28.70957173 28.7402328
 41.06456191 41.14318605 41.45488658 41.53622791 41.55334941 41.71347935
 59.39372412 60.07391181]
  24 ( 0.667  0.667  0.000)   [-6.83092861e+01 -6.83092834e+01 -5.65901520e+00 -5.65872875e+00
 -3.76525942e+00 -3.76525942e+00 -3.76496157e+00 -3.76460417e+00
 -3.76431164e+00 -3.76431164e+00 -3.15622429e-01 -4.51192762e-02
  8.16451573e-02  8.16451842e-02] [ 0.46281876  0.51937052  0.76587061  0.76587062  0.87302127  0.89167511
  0.99152828  1.04284659  1.04284661  1.06436062  1.14804441  1.14869869
  1.14869871  1.27890122  1.43413086  1.4942717   1.5245411   1.52454111
  1.55930615  1.64598124  1.70471747  1.70471749  1.75211929  1.96814147
  1.9681415   1.98580523  2.03881449  2.04242941  2.04242943  2.08544364
  2.15033464  2.2235022   2.22350224  2.26680769  2.38786802  2.38786805
  2.44762659  2.45014267  2.47445933  2.63476348  2.67877277  2.67877278
  2.69139084  2.87320176  2.87320177  3.07173409  3.22919871  3.47162847
  3.6851507   3.68515072  3.71902309  4.32248573  4.38702618  4.38702621
  6.83365165  6.86705465  6.89501174  6.92947006  6.92947006  6.9733533
  7.07810035  7.08774965  7.08774965  7.34274311 10.94576951 11.16015809
 11.33205355 11.33205355 11.38017747 11.78704318 12.05170816 12.05170816
 23.5049027  23.5049027  23.50978632 23.50978632 23.51188625 23.5140587
 23.51541553 23.52250423 23.52635879 23.5272715  23.5272715  23.53352634
 23.53352634 23.55172437 28.55525425 28.56751642 28.58441356 28.60280465
 28.60280465 28.63052193 28.69004555 28.69004555 28.69018371 28.84178072
 41.29644915 41.29644915 41.34979493 41.79393411 42.14917576 42.14917576
 59.20528498 59.68957812]
  25 ( 0.667  0.667  0.333)   [-6.83092855e+01 -6.83092842e+01 -5.65894795e+00 -5.65880191e+00
 -3.76530761e+00 -3.76525659e+00 -3.76492000e+00 -3.76464782e+00
 -3.76431778e+00 -3.76427745e+00 -2.44514091e-01 -1.40293687e-01
 -3.61369960e-03  9.65183535e-02] [ 0.50172107  0.67493855  0.73663617  0.75989392  0.76684918  0.78190701
  1.04224055  1.06975496  1.14130535  1.14740158  1.17942157  1.21976917
  1.25192675  1.27652828  1.39551633  1.41324657  1.44897836  1.45606276
  1.5786451   1.58489198  1.65318893  1.69263117  1.7134592   1.72478606
  1.90448309  1.913873    2.07811245  2.09478183  2.0973641   2.12771798
  2.14810002  2.22286916  2.23417045  2.26262538  2.32867582  2.48853446
  2.5051657   2.58290747  2.59426909  2.62285889  2.67331215  2.71909703
  2.78684313  2.80650048  2.86815473  3.07132767  3.11912966  3.29150936
  3.29682353  3.42625021  3.90880436  3.9965109   4.09466424  4.15152139
  6.89520533  6.91108758  6.93543455  7.00182443  7.02982957  7.06145495
  7.072637    7.11990206  7.12487327  7.17561058 10.95922034 11.1635771
 11.17374413 11.19651762 11.51759841 11.59751471 11.69052794 11.69632737
 23.5062186  23.50720158 23.50805897 23.50974328 23.51298773 23.51906193
 23.52102492 23.52316769 23.52322901 23.52449003 23.52754284 23.53013932
 23.53295827 23.54484214 28.58147521 28.59837252 28.60425772 28.64533809
 28.65748705 28.67192793 28.68102366 28.70681094 28.70957173 28.7402328
 41.06456191 41.14318605 41.45488658 41.53622791 41.55334941 41.71347935
 59.39372412 60.07391181]
  26 ( 0.667  0.667  0.667)   [-6.83092864e+01 -6.83092829e+01 -5.65906136e+00 -5.65867776e+00
 -3.76519424e+00 -3.76519424e+00 -3.76511871e+00 -3.76444779e+00
 -3.76436473e+00 -3.76436473e+00 -3.43566921e-01 -5.95666591e-02
  1.48371519e-01  1.48371519e-01] [ 0.52160433  0.59136928  0.59136928  0.77349553  0.78989064  0.78989064
  0.83725659  1.02662349  1.09134639  1.09134639  1.17567292  1.21729501
  1.21729501  1.32220299  1.50234093  1.50234093  1.51335645  1.60635017
  1.60635017  1.71627261  1.76069096  1.76069096  1.77601491  1.81670657
  1.81670657  1.88394424  1.88394424  1.97633644  2.15505733  2.15505733
  2.20933543  2.23177776  2.29727143  2.29727143  2.29975365  2.46994527
  2.48307851  2.48307851  2.554469    2.62337083  2.62337084  2.73982493
  2.73982493  2.83300556  2.84113109  2.8411311   2.93039071  3.64193871
  3.8121141   3.81211411  4.03414149  4.14791491  4.26826245  4.26826245
  6.85886167  6.85886167  6.89528483  7.02086553  7.02086553  7.03395571
  7.03395571  7.18113385  7.2162224   7.2162224  10.69471226 11.30057238
 11.48763001 11.55392769 11.55392769 11.80301528 11.83883254 11.83883254
 23.50306023 23.50742091 23.50742091 23.50985798 23.50985798 23.51323309
 23.51555137 23.51655094 23.52581407 23.52581407 23.52821632 23.52821632
 23.52880258 23.54262436 28.56343877 28.56343877 28.58571071 28.65365823
 28.65365823 28.65997708 28.65997708 28.74665259 28.76410761 28.76410761
 41.44202589 41.56527185 41.56527185 41.64241727 41.8753389  41.8753389
 58.65644591 60.36080643]
    CPU time for get_k_kpts: make_kpt ki>=kj (0,*)      3.15 sec, wall time      0.11 sec
    CPU time for get_k_kpts: make_kpt ki>=kj (1,*)     12.12 sec, wall time      0.39 sec
    CPU time for get_k_kpts: make_kpt ki>=kj (2,*)     18.96 sec, wall time      0.59 sec
    CPU time for get_k_kpts: make_kpt ki>=kj (3,*)     25.11 sec, wall time      0.79 sec
    CPU time for get_k_kpts: make_kpt ki>=kj (4,*)     32.03 sec, wall time      1.01 sec
    CPU time for get_k_kpts: make_kpt ki>=kj (5,*)     38.67 sec, wall time      1.21 sec
    CPU time for get_k_kpts: make_kpt ki>=kj (6,*)     44.66 sec, wall time      1.40 sec
    CPU time for get_k_kpts: make_kpt ki>=kj (7,*)     53.51 sec, wall time      1.68 sec
    CPU time for get_k_kpts: make_kpt ki>=kj (8,*)     58.18 sec, wall time      1.83 sec
    CPU time for get_k_kpts: make_kpt ki>=kj (9,*)     66.17 sec, wall time      2.09 sec
    CPU time for get_k_kpts: make_kpt ki>=kj (10,*)     72.67 sec, wall time      2.28 sec
    CPU time for get_k_kpts: make_kpt ki>=kj (11,*)     78.05 sec, wall time      2.45 sec
    CPU time for get_k_kpts: make_kpt ki>=kj (12,*)     83.40 sec, wall time      2.62 sec
    CPU time for get_k_kpts: make_kpt ki>=kj (13,*)     89.95 sec, wall time      2.82 sec
    CPU time for get_k_kpts: make_kpt ki>=kj (14,*)     96.34 sec, wall time      3.02 sec
    CPU time for get_k_kpts: make_kpt ki>=kj (15,*)    102.78 sec, wall time      3.23 sec
    CPU time for get_k_kpts: make_kpt ki>=kj (16,*)    109.13 sec, wall time      3.42 sec
    CPU time for get_k_kpts: make_kpt ki>=kj (17,*)    116.78 sec, wall time      3.67 sec
    CPU time for get_k_kpts: make_kpt ki>=kj (18,*)    121.08 sec, wall time      3.80 sec
    CPU time for get_k_kpts: make_kpt ki>=kj (19,*)    127.85 sec, wall time      4.01 sec
    CPU time for get_k_kpts: make_kpt ki>=kj (20,*)    135.19 sec, wall time      4.24 sec
    CPU time for get_k_kpts: make_kpt ki>=kj (21,*)    148.03 sec, wall time      4.68 sec
    CPU time for get_k_kpts: make_kpt ki>=kj (22,*)    147.20 sec, wall time      4.62 sec
    CPU time for get_k_kpts: make_kpt ki>=kj (23,*)    155.60 sec, wall time      4.88 sec
    CPU time for get_k_kpts: make_kpt ki>=kj (24,*)    161.22 sec, wall time      5.06 sec
    CPU time for get_k_kpts: make_kpt ki>=kj (25,*)    166.14 sec, wall time      5.21 sec
    CPU time for get_k_kpts: make_kpt ki>=kj (26,*)    169.99 sec, wall time      5.33 sec
Monkhorst pack size [3 3 3] ew_eta 1.379780863988 ew_cut 5.096557435665055
Ewald components = 0, -0.778571064310922, 0.704115632351815
    CPU time for get_j pass 1     68.69 sec, wall time      2.31 sec
    CPU time for get_j pass 2      5.90 sec, wall time      1.70 sec
    CPU time for vj and vk   2511.67 sec, wall time     80.57 sec
Ewald components = 1.37780080874323e-135, -879.68906505185, 776.814472849255
E1 = (-608.6704475892667+2.4941654051121252e-15j)  E_coul = (133.61105942915518-4.756294627998282e-16j)
Extra cycle  E= -577.933980362706  delta_E= -6.73e-10  |g|= 4.98e-05  |ddm|= 0.00139
    CPU time for scf_cycle  48761.70 sec, wall time   1817.23 sec
    CPU time for SCF  48761.79 sec, wall time   1817.39 sec
converged SCF energy = -577.933980362706
