#INFO: **** input file is /burg/ccce/users/eav2136/projects/core_level_spectroscopy/01_peommp2_cbe/meanfield.py ****
#!/usr/bin/env python
import json
from pyscf.pbc import gto, scf
from pyscf.pbc.tools import lattice, pyscf_ase
from pyscf.pbc.scf import chkfile
from fileutils import load, dump
import sys

material = load("data/{}".format(sys.argv[1]))
# Create Cell
cell = gto.Cell()
ase_atom = lattice.get_ase_atom(material["formula"])
cell.atom = pyscf_ase.ase_atoms_to_pyscf(ase_atom)
cell.a = ase_atom.cell[:]
cell.unit = "B"
cell.basis = material["basis"]
cell.exp_to_discard = material["exp_to_discard"]
cell.verbose = 7
cell.build()

# Mean Field
kdensity = material["kdensity"]
kmesh = [kdensity, kdensity, kdensity]
kpts = cell.make_kpts(kmesh, scaled_center=material["vb_scaled_center"])
mymf = scf.KRHF(cell, kpts=kpts, exxdiv="ewald")
mymf.chkfile = "data/{}".format(material["chk"])
mymf = mymf.density_fit()
mymf.with_df._cderi_to_save = "data/{}".format(material["cderi"])
ekrhf = mymf.kernel()
convergence = mymf.converged
mymf_data = dict([("ekrhf", float(ekrhf)),
                  ("convergence", bool(convergence))])
dump(mymf_data, "data/{}".format(material["ekrhf"]))
#INFO: ******************** input file end ********************


System: uname_result(system='Linux', node='g102', release='4.18.0-193.el8.x86_64', version='#1 SMP Fri Mar 27 14:35:58 UTC 2020', machine='x86_64')  Threads 32
Python 3.10.12 (main, Jul 29 2023, 11:27:27) [GCC 13.2.0]
numpy 1.25.1  scipy 1.10.1
Date: Thu Jan  4 15:11:12 2024
PySCF version 2.0.1
PySCF path  /burg/berkelbach/users/eav2136/builds/pyscf/projected-cvs/pyscf
GIT ORIG_HEAD 0bfbc692adf3ea63b8a509210433219cd1c472a2
GIT HEAD (branch projected-cvs) e14caaa2dddc538b9be2d86f01e5b456fc92da36

[ENV] PYSCF_TMPDIR /burg/ccce/users/eav2136/projects/core_level_spectroscopy/01_peommp2_cbe/tmp
[ENV] PYSCF_MAX_MEMORY 700000
[CONFIG] DEBUG = False
[CONFIG] MAX_MEMORY = 700000
[CONFIG] TMPDIR = /burg/ccce/users/eav2136/projects/core_level_spectroscopy/01_peommp2_cbe/tmp
[CONFIG] UNIT = angstrom
[CONFIG] VERBOSE = 3
[CONFIG] conf_file = None
[INPUT] verbose = 7
[INPUT] max_memory = 700000 
[INPUT] num. atoms = 2
[INPUT] num. electrons = 28
[INPUT] charge = 0
[INPUT] spin (= nelec alpha-beta = 2S) = 0
[INPUT] symmetry False subgroup None
[INPUT] Mole.unit = B
[INPUT]  1 Si     0.000000000000   0.000000000000   0.000000000000 AA    0.000000000000   0.000000000000   0.000000000000 Bohr
[INPUT]  2 Si     1.357749902598   1.357749902598   1.357749902598 AA    2.565775461565   2.565775461565   2.565775461565 Bohr
[INPUT] ---------------- BASIS SET ---------------- 
[INPUT] l, kappa, [nprim/nctr], expnt,             c_1 c_2 ...
[INPUT] Si
[INPUT] 0    0    [13   /3   ]  254900            6.25101e-05 -1.6637e-05 4.26257e-06
                                38190             0.000485553 -0.00012931 3.31062e-05
                                8690              0.00254516 -0.000678828 0.000174015
                                2462              0.0105866 -0.00284117 0.000727574
                                804.8             0.0368787 -0.0100551 0.00258333
                                291.3             0.107479 -0.0305774 0.00786354
                                113.6             0.247936 -0.0777256 0.0202155
                                46.75             0.390927 -0.154236 0.040732
                                19.82             0.302026 -0.180368 0.0499358
                                7.708             0.0559236 0.0798218 -0.0249396
                                3.34              -0.00402406 0.547441 -0.19035
                                1.402             0.0025803 0.480119 -0.31835
                                0.207             0.00060793 -0.0106996 0.68118
[INPUT] 0    0    [1    /1   ]  0.4387               1
[INPUT] 0    0    [1    /1   ]  0.07944              1
[INPUT] 1    0    [7    /2   ]  481.5             0.00192045 -0.00040522
                                113.9             0.0153552 -0.00335896
                                36.23             0.0713991 -0.015286
                                13.34             0.213052 -0.0489218
                                5.252             0.390354 -0.0855008
                                2.12              0.393721 -0.112137
                                0.2528            0.0039563 0.551919
[INPUT] 1    0    [1    /1   ]  0.8561               1
[INPUT] 1    0    [1    /1   ]  0.07889              1
[INPUT] 2    0    [1    /1   ]  0.159                1
[INPUT] 2    0    [1    /1   ]  0.481                1
[INPUT] 3    0    [1    /1   ]  0.336                1
[INPUT] 0    0    [1    /1   ]  9.164                1
[INPUT] 0    0    [1    /1   ]  1.621                1
[INPUT] 1    0    [1    /1   ]  6.458                1
[INPUT] 1    0    [1    /1   ]  2.517                1
[INPUT] 2    0    [1    /1   ]  10.671               1
[INPUT] 2    0    [1    /1   ]  3.308                1
[INPUT] 3    0    [1    /1   ]  7.001                1

Ewald components = 1.37780080874323e-135, -879.68906505185, 776.814472849255
nuclear repulsion = -102.874592202595
number of shells = 32
number of NR pGTOs = 168
number of NR cGTOs = 118
basis = ccpcvtz
ecp = {}
bas 0, expnt(s) = [2.549e+05 3.819e+04 8.690e+03 2.462e+03 8.048e+02 2.913e+02 1.136e+02
 4.675e+01 1.982e+01 7.708e+00 3.340e+00 1.402e+00 2.070e-01]
bas 1, expnt(s) = [0.4387]
bas 2, expnt(s) = [0.07944]
bas 3, expnt(s) = [4.815e+02 1.139e+02 3.623e+01 1.334e+01 5.252e+00 2.120e+00 2.528e-01]
bas 4, expnt(s) = [0.8561]
bas 5, expnt(s) = [0.07889]
bas 6, expnt(s) = [0.159]
bas 7, expnt(s) = [0.481]
bas 8, expnt(s) = [0.336]
bas 9, expnt(s) = [9.164]
bas 10, expnt(s) = [1.621]
bas 11, expnt(s) = [6.458]
bas 12, expnt(s) = [2.517]
bas 13, expnt(s) = [10.671]
bas 14, expnt(s) = [3.308]
bas 15, expnt(s) = [7.001]
bas 16, expnt(s) = [2.549e+05 3.819e+04 8.690e+03 2.462e+03 8.048e+02 2.913e+02 1.136e+02
 4.675e+01 1.982e+01 7.708e+00 3.340e+00 1.402e+00 2.070e-01]
bas 17, expnt(s) = [0.4387]
bas 18, expnt(s) = [0.07944]
bas 19, expnt(s) = [4.815e+02 1.139e+02 3.623e+01 1.334e+01 5.252e+00 2.120e+00 2.528e-01]
bas 20, expnt(s) = [0.8561]
bas 21, expnt(s) = [0.07889]
bas 22, expnt(s) = [0.159]
bas 23, expnt(s) = [0.481]
bas 24, expnt(s) = [0.336]
bas 25, expnt(s) = [9.164]
bas 26, expnt(s) = [1.621]
bas 27, expnt(s) = [6.458]
bas 28, expnt(s) = [2.517]
bas 29, expnt(s) = [10.671]
bas 30, expnt(s) = [3.308]
bas 31, expnt(s) = [7.001]
CPU time:         1.08
lattice vectors  a1 [0.000000000, 5.131550923, 5.131550923]
                 a2 [5.131550923, 0.000000000, 5.131550923]
                 a3 [5.131550923, 5.131550923, 0.000000000]
dimension = 3
low_dim_ft_type = None
Cell volume = 270.256
rcut = 27.543043613549035 (nimgs = [5 5 5])
lattice sum = 815 cells
precision = 1e-08
pseudo = None
ke_cutoff = 518236.2144944772
    = [1921 1921 1921] mesh (7088952961 PWs)


******** <class 'pyscf.pbc.scf.khf.KRHF'> ********
method = KRHF-KSCF-RHF-SCF-RHF
initial guess = minao
damping factor = 0
level_shift factor = 0
DIIS = <class 'pyscf.scf.diis.CDIIS'>
diis_start_cycle = 1
diis_space = 8
SCF conv_tol = 1e-07
SCF conv_tol_grad = None
SCF max_cycles = 50
direct_scf = True
direct_scf_tol = 1e-13
chkfile to save SCF result = data/si_ccpcvtz_k4_Si_2p_nvir_act14.chk
max_memory 700000 MB (current use 108 MB)


******** PBC SCF flags ********
N kpts = 64
kpts = [[ 0.          0.          0.        ]
 [ 0.15305279  0.15305279 -0.15305279]
 [ 0.30610557  0.30610557 -0.30610557]
 [ 0.45915836  0.45915836 -0.45915836]
 [ 0.15305279 -0.15305279  0.15305279]
 [ 0.30610557  0.          0.        ]
 [ 0.45915836  0.15305279 -0.15305279]
 [ 0.61221114  0.30610557 -0.30610557]
 [ 0.30610557 -0.30610557  0.30610557]
 [ 0.45915836 -0.15305279  0.15305279]
 [ 0.61221114  0.          0.        ]
 [ 0.76526393  0.15305279 -0.15305279]
 [ 0.45915836 -0.45915836  0.45915836]
 [ 0.61221114 -0.30610557  0.30610557]
 [ 0.76526393 -0.15305279  0.15305279]
 [ 0.91831671  0.          0.        ]
 [-0.15305279  0.15305279  0.15305279]
 [ 0.          0.30610557  0.        ]
 [ 0.15305279  0.45915836 -0.15305279]
 [ 0.30610557  0.61221114 -0.30610557]
 [ 0.          0.          0.30610557]
 [ 0.15305279  0.15305279  0.15305279]
 [ 0.30610557  0.30610557  0.        ]
 [ 0.45915836  0.45915836 -0.15305279]
 [ 0.15305279 -0.15305279  0.45915836]
 [ 0.30610557  0.          0.30610557]
 [ 0.45915836  0.15305279  0.15305279]
 [ 0.61221114  0.30610557  0.        ]
 [ 0.30610557 -0.30610557  0.61221114]
 [ 0.45915836 -0.15305279  0.45915836]
 [ 0.61221114  0.          0.30610557]
 [ 0.76526393  0.15305279  0.15305279]
 [-0.30610557  0.30610557  0.30610557]
 [-0.15305279  0.45915836  0.15305279]
 [ 0.          0.61221114  0.        ]
 [ 0.15305279  0.76526393 -0.15305279]
 [-0.15305279  0.15305279  0.45915836]
 [ 0.          0.30610557  0.30610557]
 [ 0.15305279  0.45915836  0.15305279]
 [ 0.30610557  0.61221114  0.        ]
 [ 0.          0.          0.61221114]
 [ 0.15305279  0.15305279  0.45915836]
 [ 0.30610557  0.30610557  0.30610557]
 [ 0.45915836  0.45915836  0.15305279]
 [ 0.15305279 -0.15305279  0.76526393]
 [ 0.30610557  0.          0.61221114]
 [ 0.45915836  0.15305279  0.45915836]
 [ 0.61221114  0.30610557  0.30610557]
 [-0.45915836  0.45915836  0.45915836]
 [-0.30610557  0.61221114  0.30610557]
 [-0.15305279  0.76526393  0.15305279]
 [ 0.          0.91831671  0.        ]
 [-0.30610557  0.30610557  0.61221114]
 [-0.15305279  0.45915836  0.45915836]
 [ 0.          0.61221114  0.30610557]
 [ 0.15305279  0.76526393  0.15305279]
 [-0.15305279  0.15305279  0.76526393]
 [ 0.          0.30610557  0.61221114]
 [ 0.15305279  0.45915836  0.45915836]
 [ 0.30610557  0.61221114  0.30610557]
 [ 0.          0.          0.91831671]
 [ 0.15305279  0.15305279  0.76526393]
 [ 0.30610557  0.30610557  0.61221114]
 [ 0.45915836  0.45915836  0.45915836]]
Exchange divergence treatment (exxdiv) = ewald
Monkhorst pack size [4 4 4] ew_eta 1.046366873191483 ew_cut 6.717746044940423
Ewald components = 0, -0.590432236532393, 0.534590662479126
    madelung (= occupied orbital energy shift) = 0.11168314810653568
    Total energy shift due to Ewald probe charge = -1/2 * Nelec*madelung = -1.56356407349
DF object = <pyscf.pbc.df.df.GDF object at 0x155553f27fa0>
Set gradient conv threshold to 0.000316228
Big error detected in the electron number of initial guess density matrix (Ne/cell = 27.9987)!
  This can cause huge error in Fock matrix and lead to instability in SCF for low-dimensional systems.
  DM is normalized wrt the number of electrons 28.0
    CPU time for vnuc pass1: analytic int    434.22 sec, wall time     13.99 sec
    CPU time for contracting Vnuc [0:729]     96.89 sec, wall time      3.70 sec
    CPU time for contracting Vnuc     96.89 sec, wall time      3.70 sec
    CPU time for get_nuc    531.78 sec, wall time     17.71 sec


******** <class 'pyscf.pbc.df.df.GDF'> ********
mesh = [9, 9, 9] (729 PWs)
auxbasis = None
eta = 0.2
exp_to_discard = None
_cderi_to_save = data/si_ccpcvtz_k4_Si_2p_nvir_act14_cderi.h5
len(kpts) = 64
    kpts = [[ 0.          0.          0.        ]
 [ 0.15305279  0.15305279 -0.15305279]
 [ 0.30610557  0.30610557 -0.30610557]
 [ 0.45915836  0.45915836 -0.45915836]
 [ 0.15305279 -0.15305279  0.15305279]
 [ 0.30610557  0.          0.        ]
 [ 0.45915836  0.15305279 -0.15305279]
 [ 0.61221114  0.30610557 -0.30610557]
 [ 0.30610557 -0.30610557  0.30610557]
 [ 0.45915836 -0.15305279  0.15305279]
 [ 0.61221114  0.          0.        ]
 [ 0.76526393  0.15305279 -0.15305279]
 [ 0.45915836 -0.45915836  0.45915836]
 [ 0.61221114 -0.30610557  0.30610557]
 [ 0.76526393 -0.15305279  0.15305279]
 [ 0.91831671  0.          0.        ]
 [-0.15305279  0.15305279  0.15305279]
 [ 0.          0.30610557  0.        ]
 [ 0.15305279  0.45915836 -0.15305279]
 [ 0.30610557  0.61221114 -0.30610557]
 [ 0.          0.          0.30610557]
 [ 0.15305279  0.15305279  0.15305279]
 [ 0.30610557  0.30610557  0.        ]
 [ 0.45915836  0.45915836 -0.15305279]
 [ 0.15305279 -0.15305279  0.45915836]
 [ 0.30610557  0.          0.30610557]
 [ 0.45915836  0.15305279  0.15305279]
 [ 0.61221114  0.30610557  0.        ]
 [ 0.30610557 -0.30610557  0.61221114]
 [ 0.45915836 -0.15305279  0.45915836]
 [ 0.61221114  0.          0.30610557]
 [ 0.76526393  0.15305279  0.15305279]
 [-0.30610557  0.30610557  0.30610557]
 [-0.15305279  0.45915836  0.15305279]
 [ 0.          0.61221114  0.        ]
 [ 0.15305279  0.76526393 -0.15305279]
 [-0.15305279  0.15305279  0.45915836]
 [ 0.          0.30610557  0.30610557]
 [ 0.15305279  0.45915836  0.15305279]
 [ 0.30610557  0.61221114  0.        ]
 [ 0.          0.          0.61221114]
 [ 0.15305279  0.15305279  0.45915836]
 [ 0.30610557  0.30610557  0.30610557]
 [ 0.45915836  0.45915836  0.15305279]
 [ 0.15305279 -0.15305279  0.76526393]
 [ 0.30610557  0.          0.61221114]
 [ 0.45915836  0.15305279  0.45915836]
 [ 0.61221114  0.30610557  0.30610557]
 [-0.45915836  0.45915836  0.45915836]
 [-0.30610557  0.61221114  0.30610557]
 [-0.15305279  0.76526393  0.15305279]
 [ 0.          0.91831671  0.        ]
 [-0.30610557  0.30610557  0.61221114]
 [-0.15305279  0.45915836  0.45915836]
 [ 0.          0.61221114  0.30610557]
 [ 0.15305279  0.76526393  0.15305279]
 [-0.15305279  0.15305279  0.76526393]
 [ 0.          0.30610557  0.61221114]
 [ 0.15305279  0.45915836  0.45915836]
 [ 0.30610557  0.61221114  0.30610557]
 [ 0.          0.          0.91831671]
 [ 0.15305279  0.15305279  0.76526393]
 [ 0.30610557  0.30610557  0.61221114]
 [ 0.45915836  0.45915836  0.45915836]]
Even tempered Gaussians are generated as DF auxbasis for  Si
  ETB auxbasis for Si  [[0, [10412.35968, 1]], [0, [5206.17984, 1]], [0, [2603.08992, 1]], [0, [1301.54496, 1]], [0, [650.77248, 1]], [0, [325.38624, 1]], [0, [162.69312, 1]], [0, [81.34656, 1]], [0, [40.67328, 1]], [0, [20.33664, 1]], [0, [10.16832, 1]], [0, [5.08416, 1]], [0, [2.54208, 1]], [0, [1.27104, 1]], [0, [0.63552, 1]], [0, [0.31776, 1]], [0, [0.15888, 1]], [1, [2594.063068591702, 1]], [1, [1297.031534295851, 1]], [1, [648.5157671479255, 1]], [1, [324.2578835739628, 1]], [1, [162.1289417869814, 1]], [1, [81.0644708934907, 1]], [1, [40.53223544674535, 1]], [1, [20.266117723372673, 1]], [1, [10.133058861686337, 1]], [1, [5.066529430843168, 1]], [1, [2.533264715421584, 1]], [1, [1.266632357710792, 1]], [1, [0.633316178855396, 1]], [1, [0.316658089427698, 1]], [1, [0.158329044713849, 1]], [2, [646.26688, 1]], [2, [323.13344, 1]], [2, [161.56672, 1]], [2, [80.78336, 1]], [2, [40.39168, 1]], [2, [20.19584, 1]], [2, [10.09792, 1]], [2, [5.04896, 1]], [2, [2.52448, 1]], [2, [1.26224, 1]], [2, [0.63112, 1]], [2, [0.31556, 1]], [2, [0.15778, 1]], [3, [114.68575997812458, 1]], [3, [57.34287998906229, 1]], [3, [28.671439994531145, 1]], [3, [14.335719997265572, 1]], [3, [7.167859998632786, 1]], [3, [3.583929999316393, 1]], [3, [1.7919649996581966, 1]], [3, [0.8959824998290983, 1]], [3, [0.44799124991454914, 1]], [3, [0.22399562495727457, 1]], [4, [20.352, 1]], [4, [10.176, 1]], [4, [5.088, 1]], [4, [2.544, 1]], [4, [1.272, 1]], [4, [0.636, 1]], [4, [0.318, 1]]]
num shells = 124, num cGTOs = 520
Drop 0 primitive fitting functions
make aux basis, num shells = 124, num cGTOs = 520
auxcell.rcut 15.157222589146311
make compensating basis, num shells = 10, num cGTOs = 50
chgcell.rcut 11.482117703874595
    CPU time for 3c2e  30233.47 sec, wall time   1190.50 sec
Num uniq kpts 172
uniq_kpts [[ 0.          0.          0.        ]
 [-0.15305279 -0.15305279  0.15305279]
 [-0.30610557 -0.30610557  0.30610557]
 [-0.45915836 -0.45915836  0.45915836]
 [-0.15305279  0.15305279 -0.15305279]
 [ 0.          0.30610557 -0.30610557]
 [ 0.15305279  0.45915836 -0.45915836]
 [ 0.30610557  0.61221114 -0.61221114]
 [-0.30610557  0.          0.        ]
 [-0.45915836 -0.15305279  0.15305279]
 [-0.61221114 -0.30610557  0.30610557]
 [-0.30610557  0.30610557 -0.30610557]
 [-0.15305279  0.45915836 -0.45915836]
 [ 0.          0.61221114 -0.61221114]
 [ 0.15305279  0.76526393 -0.76526393]
 [-0.45915836  0.15305279 -0.15305279]
 [-0.61221114  0.          0.        ]
 [-0.76526393 -0.15305279  0.15305279]
 [-0.45915836  0.45915836 -0.45915836]
 [-0.30610557  0.61221114 -0.61221114]
 [-0.15305279  0.76526393 -0.76526393]
 [ 0.          0.91831671 -0.91831671]
 [-0.61221114  0.30610557 -0.30610557]
 [-0.76526393  0.15305279 -0.15305279]
 [-0.91831671  0.          0.        ]
 [ 0.15305279 -0.15305279 -0.15305279]
 [ 0.30610557  0.         -0.30610557]
 [ 0.45915836  0.15305279 -0.45915836]
 [ 0.61221114  0.30610557 -0.61221114]
 [ 0.30610557 -0.30610557  0.        ]
 [ 0.45915836 -0.15305279 -0.15305279]
 [ 0.61221114  0.         -0.30610557]
 [ 0.76526393  0.15305279 -0.45915836]
 [ 0.45915836 -0.45915836  0.15305279]
 [ 0.61221114 -0.30610557  0.        ]
 [ 0.76526393 -0.15305279 -0.15305279]
 [ 0.91831671  0.         -0.30610557]
 [ 0.61221114 -0.61221114  0.30610557]
 [ 0.76526393 -0.45915836  0.15305279]
 [ 0.91831671 -0.30610557  0.        ]
 [ 1.0713695  -0.15305279 -0.15305279]
 [ 0.         -0.30610557  0.        ]
 [ 0.15305279 -0.45915836  0.15305279]
 [ 0.30610557 -0.61221114  0.30610557]
 [ 0.45915836 -0.76526393  0.45915836]
 [-0.15305279 -0.45915836  0.15305279]
 [ 0.         -0.61221114  0.30610557]
 [ 0.15305279 -0.76526393  0.45915836]
 [ 0.30610557 -0.91831671  0.61221114]
 [-0.30610557 -0.61221114  0.30610557]
 [-0.15305279 -0.76526393  0.45915836]
 [ 0.         -0.91831671  0.61221114]
 [ 0.15305279 -1.0713695   0.76526393]
 [ 0.          0.         -0.30610557]
 [ 0.15305279  0.15305279 -0.45915836]
 [ 0.30610557  0.30610557 -0.61221114]
 [ 0.45915836  0.45915836 -0.76526393]
 [-0.15305279 -0.15305279 -0.15305279]
 [-0.30610557 -0.30610557  0.        ]
 [-0.45915836 -0.45915836  0.15305279]
 [-0.15305279  0.15305279 -0.45915836]
 [ 0.          0.30610557 -0.61221114]
 [ 0.15305279  0.45915836 -0.76526393]
 [ 0.30610557  0.61221114 -0.91831671]
 [-0.30610557  0.         -0.30610557]
 [-0.45915836 -0.15305279 -0.15305279]
 [-0.61221114 -0.30610557  0.        ]
 [-0.30610557  0.30610557 -0.61221114]
 [-0.15305279  0.45915836 -0.76526393]
 [ 0.          0.61221114 -0.91831671]
 [ 0.15305279  0.76526393 -1.0713695 ]
 [-0.45915836  0.15305279 -0.45915836]
 [-0.61221114  0.         -0.30610557]
 [-0.76526393 -0.15305279 -0.15305279]
 [ 0.30610557 -0.30610557 -0.30610557]
 [ 0.45915836 -0.15305279 -0.45915836]
 [ 0.61221114  0.         -0.61221114]
 [ 0.76526393  0.15305279 -0.76526393]
 [ 0.45915836 -0.45915836 -0.15305279]
 [ 0.61221114 -0.30610557 -0.30610557]
 [ 0.76526393 -0.15305279 -0.45915836]
 [ 0.91831671  0.         -0.61221114]
 [ 0.61221114 -0.61221114  0.        ]
 [ 0.76526393 -0.45915836 -0.15305279]
 [ 0.91831671 -0.30610557 -0.30610557]
 [ 1.0713695  -0.15305279 -0.45915836]
 [ 0.76526393 -0.76526393  0.15305279]
 [ 0.91831671 -0.61221114  0.        ]
 [ 1.0713695  -0.45915836 -0.15305279]
 [ 1.22442229 -0.30610557 -0.30610557]
 [ 0.15305279 -0.45915836 -0.15305279]
 [ 0.30610557 -0.61221114  0.        ]
 [ 0.45915836 -0.76526393  0.15305279]
 [ 0.61221114 -0.91831671  0.30610557]
 [ 0.         -0.61221114  0.        ]
 [ 0.15305279 -0.76526393  0.15305279]
 [ 0.30610557 -0.91831671  0.30610557]
 [ 0.45915836 -1.0713695   0.45915836]
 [-0.15305279 -0.76526393  0.15305279]
 [ 0.         -0.91831671  0.30610557]
 [ 0.15305279 -1.0713695   0.45915836]
 [ 0.30610557 -1.22442229  0.61221114]
 [ 0.15305279 -0.15305279 -0.45915836]
 [ 0.30610557  0.         -0.61221114]
 [ 0.45915836  0.15305279 -0.76526393]
 [ 0.61221114  0.30610557 -0.91831671]
 [ 0.         -0.30610557 -0.30610557]
 [-0.15305279 -0.45915836 -0.15305279]
 [-0.30610557 -0.61221114  0.        ]
 [ 0.          0.         -0.61221114]
 [ 0.15305279  0.15305279 -0.76526393]
 [ 0.30610557  0.30610557 -0.91831671]
 [ 0.45915836  0.45915836 -1.0713695 ]
 [-0.15305279 -0.15305279 -0.45915836]
 [-0.30610557 -0.30610557 -0.30610557]
 [-0.45915836 -0.45915836 -0.15305279]
 [-0.15305279  0.15305279 -0.76526393]
 [ 0.          0.30610557 -0.91831671]
 [ 0.15305279  0.45915836 -1.0713695 ]
 [ 0.30610557  0.61221114 -1.22442229]
 [-0.30610557  0.         -0.61221114]
 [-0.45915836 -0.15305279 -0.45915836]
 [-0.61221114 -0.30610557 -0.30610557]
 [ 0.45915836 -0.45915836 -0.45915836]
 [ 0.61221114 -0.30610557 -0.61221114]
 [ 0.76526393 -0.15305279 -0.76526393]
 [ 0.91831671  0.         -0.91831671]
 [ 0.61221114 -0.61221114 -0.30610557]
 [ 0.76526393 -0.45915836 -0.45915836]
 [ 0.91831671 -0.30610557 -0.61221114]
 [ 1.0713695  -0.15305279 -0.76526393]
 [ 0.76526393 -0.76526393 -0.15305279]
 [ 0.91831671 -0.61221114 -0.30610557]
 [ 1.0713695  -0.45915836 -0.45915836]
 [ 1.22442229 -0.30610557 -0.61221114]
 [ 0.91831671 -0.91831671  0.        ]
 [ 1.0713695  -0.76526393 -0.15305279]
 [ 1.22442229 -0.61221114 -0.30610557]
 [ 1.37747507 -0.45915836 -0.45915836]
 [ 0.30610557 -0.61221114 -0.30610557]
 [ 0.45915836 -0.76526393 -0.15305279]
 [ 0.61221114 -0.91831671  0.        ]
 [ 0.76526393 -1.0713695   0.15305279]
 [ 0.15305279 -0.76526393 -0.15305279]
 [ 0.30610557 -0.91831671  0.        ]
 [ 0.45915836 -1.0713695   0.15305279]
 [ 0.61221114 -1.22442229  0.30610557]
 [ 0.         -0.91831671  0.        ]
 [ 0.15305279 -1.0713695   0.15305279]
 [ 0.30610557 -1.22442229  0.30610557]
 [ 0.45915836 -1.37747507  0.45915836]
 [ 0.30610557 -0.30610557 -0.61221114]
 [ 0.45915836 -0.15305279 -0.76526393]
 [ 0.61221114  0.         -0.91831671]
 [ 0.76526393  0.15305279 -1.0713695 ]
 [ 0.15305279 -0.45915836 -0.45915836]
 [ 0.         -0.61221114 -0.30610557]
 [-0.15305279 -0.76526393 -0.15305279]
 [ 0.15305279 -0.15305279 -0.76526393]
 [ 0.30610557  0.         -0.91831671]
 [ 0.45915836  0.15305279 -1.0713695 ]
 [ 0.61221114  0.30610557 -1.22442229]
 [ 0.         -0.30610557 -0.61221114]
 [-0.15305279 -0.45915836 -0.45915836]
 [-0.30610557 -0.61221114 -0.30610557]
 [ 0.          0.         -0.91831671]
 [ 0.15305279  0.15305279 -1.0713695 ]
 [ 0.30610557  0.30610557 -1.22442229]
 [ 0.45915836  0.45915836 -1.37747507]
 [-0.15305279 -0.15305279 -0.76526393]
 [-0.30610557 -0.30610557 -0.61221114]
 [-0.45915836 -0.45915836 -0.45915836]]
max_memory 698801.276928 (MB)  blocksize 30649178
Cholesky decomposition for j2c at kpt 0
Symmetry pattern (k - [0. 0. 0.])*a= 2n pi
    make_kpt for uniq_kptji_ids [0]
kpt = [0. 0. 0.]
adapted_ji_idx = [   0    2    5    9   14   20   27   35   44   54   65   77   90  104
  119  135  152  170  189  209  230  252  275  299  324  350  377  405
  434  464  495  527  560  594  629  665  702  740  779  819  860  902
  945  989 1034 1080 1127 1175 1224 1274 1325 1377 1430 1484 1539 1595
 1652 1710 1769 1829 1890 1952 2015 2079]
memory = 323.280896
int3c2e [1/1], AO [0:32], ncol = 7021
Symmetry pattern (k + [0. 0. 0.])*a= 2n pi
    make_kpt for [0]
Cholesky decomposition for j2c at kpt 1
Symmetry pattern (k - [-0.15305279 -0.15305279  0.15305279])*a= 2n pi
    make_kpt for uniq_kptji_ids [1]
kpt = [-0.15305279 -0.15305279  0.15305279]
adapted_ji_idx = [   1    4    8   19   26   34   53   64   76  103  118  134  169  188
  208  251  274  298  349  376  404  463  494  526  593  628  664  739
  778  818  901  944  988 1079 1126 1174 1273 1324 1376 1483 1538 1594
 1709 1768 1828 1951 2014 2078]
memory = 4215.9104
int3c2e [1/1], AO [0:32], ncol = 13924
Symmetry pattern (k + [-0.15305279 -0.15305279  0.15305279])*a= 2n pi
    make_kpt for [3]
kpt = [-0.45915836 -0.45915836  0.45915836]
adapted_ji_idx = [   6   32   74  132  206  296  402  524  662  816  986 1172 1374 1592
 1826 2076]
memory = 4161.601536
int3c2e [1/1], AO [0:32], ncol = 13924
Cholesky decomposition for j2c at kpt 2
Symmetry pattern (k - [-0.30610557 -0.30610557  0.30610557])*a= 2n pi
    make_kpt for uniq_kptji_ids [2]
kpt = [-0.30610557 -0.30610557  0.30610557]
adapted_ji_idx = [   3    7   25   33   63   75  117  133  187  207  273  297  375  403
  493  525  627  663  777  817  943  987 1125 1173 1323 1375 1537 1593
 1767 1827 2013 2077]
memory = 4842.78272
int3c2e [1/1], AO [0:32], ncol = 13924
Symmetry pattern (k + [-0.30610557 -0.30610557  0.30610557])*a= 2n pi
    make_kpt for [2]
Cholesky decomposition for j2c at kpt 4
Symmetry pattern (k - [-0.15305279  0.15305279 -0.15305279])*a= 2n pi
    make_kpt for uniq_kptji_ids [4]
kpt = [-0.15305279  0.15305279 -0.15305279]
adapted_ji_idx = [  10   16   23   31   40   50   61   73   86  100  115  131  226  248
  271  295  320  346  373  401  430  460  491  523  698  736  775  815
  856  898  941  985 1030 1076 1123 1171 1426 1480 1535 1591 1648 1706
 1765 1825 1886 1948 2011 2075]
memory = 4980.465664
int3c2e [1/1], AO [0:32], ncol = 13924
Symmetry pattern (k + [-0.15305279  0.15305279 -0.15305279])*a= 2n pi
    make_kpt for [18]
kpt = [-0.45915836  0.45915836 -0.45915836]
adapted_ji_idx = [  78   92  107  123  422  452  483  515 1022 1068 1115 1163 1878 1940
 2003 2067]
memory = 5110.185984
int3c2e [1/1], AO [0:32], ncol = 13924
Cholesky decomposition for j2c at kpt 5
Symmetry pattern (k - [ 0.          0.30610557 -0.30610557])*a= 2n pi
    make_kpt for uniq_kptji_ids [ 5 10]
kpt = [ 0.          0.30610557 -0.30610557]
adapted_ji_idx = [  11   17   24   41   51   62   87  101  116  227  249  272  321  347
  374  431  461  492  699  737  776  857  899  942 1031 1077 1124 1427
 1481 1536 1649 1707 1766 1887 1949 2012]
memory = 5109.608448
int3c2e [1/1], AO [0:32], ncol = 13924
kpt = [-0.61221114 -0.30610557  0.30610557]
adapted_ji_idx = [  28   70  128  292  398  520  812  982 1168 1588 1822 2072]
memory = 5158.608896
int3c2e [1/1], AO [0:32], ncol = 13924
Symmetry pattern (k + [ 0.          0.30610557 -0.30610557])*a= 2n pi
    make_kpt for [21 22]
kpt = [ 0.          0.91831671 -0.91831671]
adapted_ji_idx = [  81  425 1025 1881]
memory = 5158.551552
int3c2e [1/1], AO [0:32], ncol = 13924
kpt = [-0.61221114  0.30610557 -0.30610557]
adapted_ji_idx = [  91  106  122  451  482  514 1067 1114 1162 1939 2002 2066]
memory = 5157.330944
int3c2e [1/1], AO [0:32], ncol = 13924
Cholesky decomposition for j2c at kpt 6
Symmetry pattern (k - [ 0.15305279  0.45915836 -0.45915836])*a= 2n pi
    make_kpt for uniq_kptji_ids [6 9]
kpt = [ 0.15305279  0.45915836 -0.45915836]
adapted_ji_idx = [  12   18   42   52   88  102  228  250  322  348  432  462  700  738
  858  900 1032 1078 1428 1482 1650 1708 1888 1950]
memory = 5157.777408
int3c2e [1/1], AO [0:32], ncol = 13924
kpt = [-0.45915836 -0.15305279  0.15305279]
adapted_ji_idx = [  21   29   59   71  113  129  269  293  371  399  489  521  773  813
  939  983 1121 1169 1533 1589 1763 1823 2009 2073]
memory = 5159.419904
int3c2e [1/1], AO [0:32], ncol = 13924
Symmetry pattern (k + [ 0.15305279  0.45915836 -0.45915836])*a= 2n pi
    make_kpt for [20 23]
kpt = [-0.15305279  0.76526393 -0.76526393]
adapted_ji_idx = [  80   94  424  454 1024 1070 1880 1942]
memory = 5160.628224
int3c2e [1/1], AO [0:32], ncol = 13924
kpt = [-0.76526393  0.15305279 -0.15305279]
adapted_ji_idx = [ 105  121  481  513 1113 1161 2001 2065]
memory = 5160.394752
int3c2e [1/1], AO [0:32], ncol = 13924
Cholesky decomposition for j2c at kpt 7
Symmetry pattern (k - [ 0.30610557  0.61221114 -0.61221114])*a= 2n pi
    make_kpt for uniq_kptji_ids [7 8]
kpt = [ 0.30610557  0.61221114 -0.61221114]
adapted_ji_idx = [  13   43   89  229  323  433  701  859 1033 1429 1651 1889]
memory = 5159.952384
int3c2e [1/1], AO [0:32], ncol = 13924
kpt = [-0.30610557  0.          0.        ]
adapted_ji_idx = [  15   22   30   49   60   72   99  114  130  247  270  294  345  372
  400  459  490  522  735  774  814  897  940  984 1075 1122 1170 1479
 1534 1590 1705 1764 1824 1947 2010 2074]
memory = 5160.910848
int3c2e [1/1], AO [0:32], ncol = 13924
Symmetry pattern (k + [ 0.30610557  0.61221114 -0.61221114])*a= 2n pi
    make_kpt for [19 24]
kpt = [-0.30610557  0.61221114 -0.61221114]
adapted_ji_idx = [  79   93  108  423  453  484 1023 1069 1116 1879 1941 2004]
memory = 5164.576768
int3c2e [1/1], AO [0:32], ncol = 13924
kpt = [-0.91831671  0.          0.        ]
adapted_ji_idx = [ 120  512 1160 2064]
memory = 5164.990464
int3c2e [1/1], AO [0:32], ncol = 13924
Cholesky decomposition for j2c at kpt 11
Symmetry pattern (k - [-0.30610557  0.30610557 -0.30610557])*a= 2n pi
    make_kpt for uniq_kptji_ids [11]
kpt = [-0.30610557  0.30610557 -0.30610557]
adapted_ji_idx = [  36   46   57   69   82   96  111  127  316  342  369  397  426  456
  487  519  852  894  937  981 1026 1072 1119 1167 1644 1702 1761 1821
 1882 1944 2007 2071]
memory = 5163.90912
int3c2e [1/1], AO [0:32], ncol = 13924
Symmetry pattern (k + [-0.30610557  0.30610557 -0.30610557])*a= 2n pi
    make_kpt for [11]
Cholesky decomposition for j2c at kpt 12
Symmetry pattern (k - [-0.15305279  0.45915836 -0.45915836])*a= 2n pi
    make_kpt for uniq_kptji_ids [12 17]
kpt = [-0.15305279  0.45915836 -0.45915836]
adapted_ji_idx = [  37   47   58   83   97  112  317  343  370  427  457  488  853  895
  938 1027 1073 1120 1645 1703 1762 1883 1945 2008]
memory = 5167.7184
int3c2e [1/1], AO [0:32], ncol = 13924
kpt = [-0.76526393 -0.15305279  0.15305279]
adapted_ji_idx = [  66  124  394  516  978 1164 1818 2068]
memory = 5167.792128
int3c2e [1/1], AO [0:32], ncol = 13924
Symmetry pattern (k + [-0.15305279  0.45915836 -0.45915836])*a= 2n pi
    make_kpt for [14 15]
kpt = [ 0.15305279  0.76526393 -0.76526393]
adapted_ji_idx = [  39   85  319  429  855 1029 1647 1885]
memory = 5168.095232
int3c2e [1/1], AO [0:32], ncol = 13924
kpt = [-0.45915836  0.15305279 -0.15305279]
adapted_ji_idx = [  45   56   68   95  110  126  341  368  396  455  486  518  893  936
  980 1071 1118 1166 1701 1760 1820 1943 2006 2070]
memory = 5167.337472
int3c2e [1/1], AO [0:32], ncol = 13924
Cholesky decomposition for j2c at kpt 13
Symmetry pattern (k - [ 0.          0.61221114 -0.61221114])*a= 2n pi
    make_kpt for uniq_kptji_ids [13 16]
kpt = [ 0.          0.61221114 -0.61221114]
adapted_ji_idx = [  38   48   84   98  318  344  428  458  854  896 1028 1074 1646 1704
 1884 1946]
memory = 5169.11104
int3c2e [1/1], AO [0:32], ncol = 13924
kpt = [-0.61221114  0.          0.        ]
adapted_ji_idx = [  55   67  109  125  367  395  485  517  935  979 1117 1165 1759 1819
 2005 2069]
memory = 5169.4592
int3c2e [1/1], AO [0:32], ncol = 13924
Symmetry pattern (k + [ 0.          0.61221114 -0.61221114])*a= 2n pi
    make_kpt for [13 16]
Cholesky decomposition for j2c at kpt 25
Symmetry pattern (k - [ 0.15305279 -0.15305279 -0.15305279])*a= 2n pi
    make_kpt for uniq_kptji_ids [25]
kpt = [ 0.15305279 -0.15305279 -0.15305279]
adapted_ji_idx = [ 136  154  173  193  214  236  259  283  308  334  361  389  418  448
  479  511  544  578  613  649  686  724  763  803  844  886  929  973
 1018 1064 1111 1159 1208 1258 1309 1361 1414 1468 1523 1579 1636 1694
 1753 1813 1874 1936 1999 2063]
memory = 5169.713152
int3c2e [1/1], AO [0:32], ncol = 13924
Symmetry pattern (k + [ 0.15305279 -0.15305279 -0.15305279])*a= 2n pi
    make_kpt for [123]
kpt = [ 0.45915836 -0.45915836 -0.45915836]
adapted_ji_idx = [1176 1226 1277 1329 1382 1436 1491 1547 1604 1662 1721 1781 1842 1904
 1967 2031]
memory = 5184.126976
int3c2e [1/1], AO [0:32], ncol = 13924
Cholesky decomposition for j2c at kpt 26
Symmetry pattern (k - [ 0.30610557  0.         -0.30610557])*a= 2n pi
    make_kpt for uniq_kptji_ids [26 49]
kpt = [ 0.30610557  0.         -0.30610557]
adapted_ji_idx = [ 137  155  174  215  237  260  309  335  362  419  449  480  545  579
  614  687  725  764  845  887  930 1019 1065 1112 1209 1259 1310 1415
 1469 1524 1637 1695 1754 1875 1937 2000]
memory = 5185.191936
int3c2e [1/1], AO [0:32], ncol = 13924
kpt = [-0.30610557 -0.61221114  0.30610557]
adapted_ji_idx = [ 190  280  386  508  646  800  970 1156 1358 1576 1810 2060]
memory = 5186.572288
int3c2e [1/1], AO [0:32], ncol = 13924
Symmetry pattern (k + [ 0.30610557  0.         -0.30610557])*a= 2n pi
    make_kpt for [126 139]
kpt = [ 0.91831671  0.         -0.91831671]
adapted_ji_idx = [1179 1385 1607 1845]
memory = 5185.55648
int3c2e [1/1], AO [0:32], ncol = 13924
kpt = [ 0.30610557 -0.61221114 -0.30610557]
adapted_ji_idx = [1225 1276 1328 1435 1490 1546 1661 1720 1780 1903 1966 2030]
memory = 5184.704512
int3c2e [1/1], AO [0:32], ncol = 13924
Cholesky decomposition for j2c at kpt 27
Symmetry pattern (k - [ 0.45915836  0.15305279 -0.45915836])*a= 2n pi
    make_kpt for uniq_kptji_ids [27 45]
kpt = [ 0.45915836  0.15305279 -0.45915836]
adapted_ji_idx = [ 138  156  216  238  310  336  420  450  546  580  688  726  846  888
 1020 1066 1210 1260 1416 1470 1638 1696 1876 1938]
memory = 5184.790528
int3c2e [1/1], AO [0:32], ncol = 13924
kpt = [-0.15305279 -0.45915836  0.15305279]
adapted_ji_idx = [ 171  191  257  281  359  387  477  509  611  647  761  801  927  971
 1109 1157 1307 1359 1521 1577 1751 1811 1997 2061]
memory = 5186.4576
int3c2e [1/1], AO [0:32], ncol = 13924
Symmetry pattern (k + [ 0.45915836  0.15305279 -0.45915836])*a= 2n pi
    make_kpt for [125 143]
kpt = [ 0.76526393 -0.15305279 -0.76526393]
adapted_ji_idx = [1178 1228 1384 1438 1606 1664 1844 1906]
memory = 5187.514368
int3c2e [1/1], AO [0:32], ncol = 13924
kpt = [ 0.15305279 -0.76526393 -0.15305279]
adapted_ji_idx = [1275 1327 1489 1545 1719 1779 1965 2029]
memory = 5187.31776
int3c2e [1/1], AO [0:32], ncol = 13924
Cholesky decomposition for j2c at kpt 28
Symmetry pattern (k - [ 0.61221114  0.30610557 -0.61221114])*a= 2n pi
    make_kpt for uniq_kptji_ids [28 41]
kpt = [ 0.61221114  0.30610557 -0.61221114]
adapted_ji_idx = [ 139  217  311  421  547  689  847 1021 1211 1417 1639 1877]
memory = 5187.612672
int3c2e [1/1], AO [0:32], ncol = 13924
kpt = [ 0.         -0.30610557  0.        ]
adapted_ji_idx = [ 153  172  192  235  258  282  333  360  388  447  478  510  577  612
  648  723  762  802  885  928  972 1063 1110 1158 1257 1308 1360 1467
 1522 1578 1693 1752 1812 1935 1998 2062]
memory = 5189.451776
int3c2e [1/1], AO [0:32], ncol = 13924
Symmetry pattern (k + [ 0.61221114  0.30610557 -0.61221114])*a= 2n pi
    make_kpt for [124 147]
kpt = [ 0.61221114 -0.30610557 -0.61221114]
adapted_ji_idx = [1177 1227 1278 1383 1437 1492 1605 1663 1722 1843 1905 1968]
memory = 5189.967872
int3c2e [1/1], AO [0:32], ncol = 13924
kpt = [ 0.         -0.91831671  0.        ]
adapted_ji_idx = [1326 1544 1778 2028]
memory = 5189.193728
int3c2e [1/1], AO [0:32], ncol = 13924
Cholesky decomposition for j2c at kpt 29
Symmetry pattern (k - [ 0.30610557 -0.30610557  0.        ])*a= 2n pi
    make_kpt for uniq_kptji_ids [29 67]
kpt = [ 0.30610557 -0.30610557  0.        ]
adapted_ji_idx = [ 140  158  177  197  218  240  263  287  312  338  365  393  548  582
  617  653  690  728  767  807  848  890  933  977 1212 1262 1313 1365
 1418 1472 1527 1583 1640 1698 1757 1817]
memory = 5188.235264
int3c2e [1/1], AO [0:32], ncol = 13924
kpt = [-0.30610557  0.30610557 -0.61221114]
adapted_ji_idx = [ 406  436  467  499 1006 1052 1099 1147 1862 1924 1987 2051]
memory = 5191.913472
int3c2e [1/1], AO [0:32], ncol = 13924
Symmetry pattern (k + [ 0.30610557 -0.30610557  0.        ])*a= 2n pi
    make_kpt for [135 151]
kpt = [ 0.91831671 -0.91831671  0.        ]
adapted_ji_idx = [1188 1238 1289 1341]
memory = 5191.217152
int3c2e [1/1], AO [0:32], ncol = 13924
kpt = [ 0.30610557 -0.30610557 -0.61221114]
adapted_ji_idx = [1378 1432 1487 1543 1600 1658 1717 1777 1838 1900 1963 2027]
memory = 5191.286784
int3c2e [1/1], AO [0:32], ncol = 13924
Cholesky decomposition for j2c at kpt 30
Symmetry pattern (k - [ 0.45915836 -0.15305279 -0.15305279])*a= 2n pi
    make_kpt for uniq_kptji_ids [30 50 68 73]
kpt = [ 0.45915836 -0.15305279 -0.15305279]
adapted_ji_idx = [ 141  159  178  219  241  264  313  339  366  549  583  618  691  729
  768  849  891  934 1213 1263 1314 1419 1473 1528 1641 1699 1758]
memory = 5192.142848
int3c2e [1/1], AO [0:32], ncol = 13924
kpt = [-0.15305279 -0.76526393  0.45915836]
adapted_ji_idx = [ 194  284  390  650  804  974 1362 1580 1814]
memory = 5193.453568
int3c2e [1/1], AO [0:32], ncol = 13924
kpt = [-0.15305279  0.45915836 -0.76526393]
adapted_ji_idx = [ 407  437  468 1007 1053 1100 1863 1925 1988]
memory = 5194.063872
int3c2e [1/1], AO [0:32], ncol = 13924
kpt = [-0.76526393 -0.15305279 -0.15305279]
adapted_ji_idx = [ 496 1144 2048]
memory = 5195.005952
int3c2e [1/1], AO [0:32], ncol = 13924
Symmetry pattern (k + [ 0.45915836 -0.15305279 -0.15305279])*a= 2n pi
    make_kpt for [138 142 154 155]
kpt = [ 1.37747507 -0.45915836 -0.45915836]
adapted_ji_idx = [1191]
memory = 5194.022912
int3c2e [1/1], AO [0:32], ncol = 13924
kpt = [ 0.76526393 -1.0713695   0.15305279]
adapted_ji_idx = [1237 1288 1340]
memory = 5193.289728
int3c2e [1/1], AO [0:32], ncol = 13924
kpt = [ 0.76526393  0.15305279 -1.0713695 ]
adapted_ji_idx = [1381 1603 1841]
memory = 5195.186176
int3c2e [1/1], AO [0:32], ncol = 13924
kpt = [ 0.15305279 -0.45915836 -0.45915836]
adapted_ji_idx = [1431 1486 1542 1657 1716 1776 1899 1962 2026]
memory = 5194.555392
int3c2e [1/1], AO [0:32], ncol = 13924
Cholesky decomposition for j2c at kpt 31
Symmetry pattern (k - [ 0.61221114  0.         -0.30610557])*a= 2n pi
    make_kpt for uniq_kptji_ids [31 46 69 72]
kpt = [ 0.61221114  0.         -0.30610557]
adapted_ji_idx = [ 142  160  220  242  314  340  550  584  692  730  850  892 1214 1264
 1420 1474 1642 1700]
memory = 5195.177984
int3c2e [1/1], AO [0:32], ncol = 13924
kpt = [ 0.         -0.61221114  0.30610557]
adapted_ji_idx = [ 175  195  261  285  363  391  615  651  765  805  931  975 1311 1363
 1525 1581 1755 1815]
memory = 5196.88192
int3c2e [1/1], AO [0:32], ncol = 13924
kpt = [ 0.          0.61221114 -0.91831671]
adapted_ji_idx = [ 408  438 1008 1054 1864 1926]
memory = 5195.833344
int3c2e [1/1], AO [0:32], ncol = 13924
kpt = [-0.61221114  0.         -0.30610557]
adapted_ji_idx = [ 465  497 1097 1145 1985 2049]
memory = 5195.214848
int3c2e [1/1], AO [0:32], ncol = 13924
Symmetry pattern (k + [ 0.61221114  0.         -0.30610557])*a= 2n pi
    make_kpt for [137 146 153 156]
kpt = [ 1.22442229 -0.61221114 -0.30610557]
adapted_ji_idx = [1190 1240]
memory = 5195.841536
int3c2e [1/1], AO [0:32], ncol = 13924
kpt = [ 0.61221114 -1.22442229  0.30610557]
adapted_ji_idx = [1287 1339]
memory = 5195.32544
int3c2e [1/1], AO [0:32], ncol = 13924
kpt = [ 0.61221114  0.         -0.91831671]
adapted_ji_idx = [1380 1434 1602 1660 1840 1902]
memory = 5196.013568
int3c2e [1/1], AO [0:32], ncol = 13924
kpt = [ 0.         -0.61221114 -0.30610557]
adapted_ji_idx = [1485 1541 1715 1775 1961 2025]
memory = 5197.35296
int3c2e [1/1], AO [0:32], ncol = 13924
Cholesky decomposition for j2c at kpt 32
Symmetry pattern (k - [ 0.76526393  0.15305279 -0.45915836])*a= 2n pi
    make_kpt for uniq_kptji_ids [32 42 70 71]
kpt = [ 0.76526393  0.15305279 -0.45915836]
adapted_ji_idx = [ 143  221  315  551  693  851 1215 1421 1643]
memory = 5197.35296
int3c2e [1/1], AO [0:32], ncol = 13924
kpt = [ 0.15305279 -0.45915836  0.15305279]
adapted_ji_idx = [ 157  176  196  239  262  286  337  364  392  581  616  652  727  766
  806  889  932  976 1261 1312 1364 1471 1526 1582 1697 1756 1816]
memory = 5196.75904
int3c2e [1/1], AO [0:32], ncol = 13924
kpt = [ 0.15305279  0.76526393 -1.0713695 ]
adapted_ji_idx = [ 409 1009 1865]
memory = 5199.74912
int3c2e [1/1], AO [0:32], ncol = 13924
kpt = [-0.45915836  0.15305279 -0.45915836]
adapted_ji_idx = [ 435  466  498 1051 1098 1146 1923 1986 2050]
memory = 5197.991936
int3c2e [1/1], AO [0:32], ncol = 13924
Symmetry pattern (k + [ 0.76526393  0.15305279 -0.45915836])*a= 2n pi
    make_kpt for [136 150 152 157]
kpt = [ 1.0713695  -0.76526393 -0.15305279]
adapted_ji_idx = [1189 1239 1290]
memory = 5199.024128
int3c2e [1/1], AO [0:32], ncol = 13924
kpt = [ 0.45915836 -1.37747507  0.45915836]
adapted_ji_idx = [1338]
memory = 5197.688832
int3c2e [1/1], AO [0:32], ncol = 13924
kpt = [ 0.45915836 -0.15305279 -0.76526393]
adapted_ji_idx = [1379 1433 1488 1601 1659 1718 1839 1901 1964]
memory = 5196.988416
int3c2e [1/1], AO [0:32], ncol = 13924
kpt = [-0.15305279 -0.76526393 -0.15305279]
adapted_ji_idx = [1540 1774 2024]
memory = 5199.572992
int3c2e [1/1], AO [0:32], ncol = 13924
Cholesky decomposition for j2c at kpt 33
Symmetry pattern (k - [ 0.45915836 -0.45915836  0.15305279])*a= 2n pi
    make_kpt for uniq_kptji_ids [33 60]
kpt = [ 0.45915836 -0.45915836  0.15305279]
adapted_ji_idx = [ 144  162  181  201  222  244  267  291  552  586  621  657  694  732
  771  811 1216 1266 1317 1369 1422 1476 1531 1587]
memory = 5197.746176
int3c2e [1/1], AO [0:32], ncol = 13924
kpt = [-0.15305279  0.15305279 -0.45915836]
adapted_ji_idx = [ 300  326  353  381  410  440  471  503  836  878  921  965 1010 1056
 1103 1151 1628 1686 1745 1805 1866 1928 1991 2055]
memory = 5200.707584
int3c2e [1/1], AO [0:32], ncol = 13924
Symmetry pattern (k + [ 0.45915836 -0.45915836  0.15305279])*a= 2n pi
    make_kpt for [131 158]
kpt = [ 0.76526393 -0.76526393 -0.15305279]
adapted_ji_idx = [1184 1234 1285 1337 1390 1444 1499 1555]
memory = 5200.764928
int3c2e [1/1], AO [0:32], ncol = 13924
kpt = [ 0.15305279 -0.15305279 -0.76526393]
adapted_ji_idx = [1596 1654 1713 1773 1834 1896 1959 2023]
memory = 5199.880192
int3c2e [1/1], AO [0:32], ncol = 13924
Cholesky decomposition for j2c at kpt 34
Symmetry pattern (k - [ 0.61221114 -0.30610557  0.        ])*a= 2n pi
    make_kpt for uniq_kptji_ids [34 51 61 66]
kpt = [ 0.61221114 -0.30610557  0.        ]
adapted_ji_idx = [ 145  163  182  223  245  268  553  587  622  695  733  772 1217 1267
 1318 1423 1477 1532]
memory = 5199.593472
int3c2e [1/1], AO [0:32], ncol = 13924
kpt = [ 0.         -0.91831671  0.61221114]
adapted_ji_idx = [ 198  288  654  808 1366 1584]
memory = 5201.53088
int3c2e [1/1], AO [0:32], ncol = 13924
kpt = [ 0.          0.30610557 -0.61221114]
adapted_ji_idx = [ 301  327  354  411  441  472  837  879  922 1011 1057 1104 1629 1687
 1746 1867 1929 1992]
memory = 5200.617472
int3c2e [1/1], AO [0:32], ncol = 13924
kpt = [-0.61221114 -0.30610557  0.        ]
adapted_ji_idx = [ 378  500  962 1148 1802 2052]
memory = 5202.538496
int3c2e [1/1], AO [0:32], ncol = 13924
Symmetry pattern (k + [ 0.61221114 -0.30610557  0.        ])*a= 2n pi
    make_kpt for [134 141 161 162]
kpt = [ 1.22442229 -0.30610557 -0.61221114]
adapted_ji_idx = [1187 1393]
memory = 5201.092608
int3c2e [1/1], AO [0:32], ncol = 13924
kpt = [ 0.61221114 -0.91831671  0.        ]
adapted_ji_idx = [1233 1284 1336 1443 1498 1554]
memory = 5200.121856
int3c2e [1/1], AO [0:32], ncol = 13924
kpt = [ 0.61221114  0.30610557 -1.22442229]
adapted_ji_idx = [1599 1837]
memory = 5201.035264
int3c2e [1/1], AO [0:32], ncol = 13924
kpt = [ 0.         -0.30610557 -0.61221114]
adapted_ji_idx = [1653 1712 1772 1895 1958 2022]
memory = 5201.195008
int3c2e [1/1], AO [0:32], ncol = 13924
Cholesky decomposition for j2c at kpt 35
Symmetry pattern (k - [ 0.76526393 -0.15305279 -0.15305279])*a= 2n pi
    make_kpt for uniq_kptji_ids [35 47 62 65]
kpt = [ 0.76526393 -0.15305279 -0.15305279]
adapted_ji_idx = [ 146  164  224  246  554  588  696  734 1218 1268 1424 1478]
memory = 5202.55488
int3c2e [1/1], AO [0:32], ncol = 13924
kpt = [ 0.15305279 -0.76526393  0.45915836]
adapted_ji_idx = [ 179  199  265  289  619  655  769  809 1315 1367 1529 1585]
memory = 5203.361792
int3c2e [1/1], AO [0:32], ncol = 13924
kpt = [ 0.15305279  0.45915836 -0.76526393]
adapted_ji_idx = [ 302  328  412  442  838  880 1012 1058 1630 1688 1868 1930]
memory = 5202.239488
int3c2e [1/1], AO [0:32], ncol = 13924
kpt = [-0.45915836 -0.15305279 -0.15305279]
adapted_ji_idx = [ 351  379  469  501  919  963 1101 1149 1743 1803 1989 2053]
memory = 5202.935808
int3c2e [1/1], AO [0:32], ncol = 13924
Symmetry pattern (k + [ 0.76526393 -0.15305279 -0.15305279])*a= 2n pi
    make_kpt for [133 145 160 163]
kpt = [ 1.0713695  -0.45915836 -0.45915836]
adapted_ji_idx = [1186 1236 1392 1446]
memory = 5202.8416
int3c2e [1/1], AO [0:32], ncol = 13924
kpt = [ 0.45915836 -1.0713695   0.15305279]
adapted_ji_idx = [1283 1335 1497 1553]
memory = 5202.427904
int3c2e [1/1], AO [0:32], ncol = 13924
kpt = [ 0.45915836  0.15305279 -1.0713695 ]
adapted_ji_idx = [1598 1656 1836 1898]
memory = 5202.665472
int3c2e [1/1], AO [0:32], ncol = 13924
kpt = [-0.15305279 -0.45915836 -0.45915836]
adapted_ji_idx = [1711 1771 1957 2021]
memory = 5202.313216
int3c2e [1/1], AO [0:32], ncol = 13924
Cholesky decomposition for j2c at kpt 36
Symmetry pattern (k - [ 0.91831671  0.         -0.30610557])*a= 2n pi
    make_kpt for uniq_kptji_ids [36 43 63 64]
kpt = [ 0.91831671  0.         -0.30610557]
adapted_ji_idx = [ 147  225  555  697 1219 1425]
memory = 5202.006016
int3c2e [1/1], AO [0:32], ncol = 13924
kpt = [ 0.30610557 -0.61221114  0.30610557]
adapted_ji_idx = [ 161  180  200  243  266  290  585  620  656  731  770  810 1265 1316
 1368 1475 1530 1586]
memory = 5203.042304
int3c2e [1/1], AO [0:32], ncol = 13924
kpt = [ 0.30610557  0.61221114 -0.91831671]
adapted_ji_idx = [ 303  413  839 1013 1631 1869]
memory = 5203.623936
int3c2e [1/1], AO [0:32], ncol = 13924
kpt = [-0.30610557  0.         -0.30610557]
adapted_ji_idx = [ 325  352  380  439  470  502  877  920  964 1055 1102 1150 1685 1744
 1804 1927 1990 2054]
memory = 5202.784256
int3c2e [1/1], AO [0:32], ncol = 13924
Symmetry pattern (k + [ 0.91831671  0.         -0.30610557])*a= 2n pi
    make_kpt for [132 149 159 164]
kpt = [ 0.91831671 -0.61221114 -0.30610557]
adapted_ji_idx = [1185 1235 1286 1391 1445 1500]
memory = 5204.774912
int3c2e [1/1], AO [0:32], ncol = 13924
kpt = [ 0.30610557 -1.22442229  0.30610557]
adapted_ji_idx = [1334 1552]
memory = 5204.037632
int3c2e [1/1], AO [0:32], ncol = 13924
kpt = [ 0.30610557  0.         -0.91831671]
adapted_ji_idx = [1597 1655 1714 1835 1897 1960]
memory = 5203.787776
int3c2e [1/1], AO [0:32], ncol = 13924
kpt = [-0.30610557 -0.61221114 -0.30610557]
adapted_ji_idx = [1770 2020]
memory = 5204.176896
int3c2e [1/1], AO [0:32], ncol = 13924
Cholesky decomposition for j2c at kpt 37
Symmetry pattern (k - [ 0.61221114 -0.61221114  0.30610557])*a= 2n pi
    make_kpt for uniq_kptji_ids [37 53]
kpt = [ 0.61221114 -0.61221114  0.30610557]
adapted_ji_idx = [ 148  166  185  205  556  590  625  661 1220 1270 1321 1373]
memory = 5203.1488
int3c2e [1/1], AO [0:32], ncol = 13924
kpt = [ 0.          0.         -0.30610557]
adapted_ji_idx = [ 210  232  255  279  304  330  357  385  414  444  475  507  682  720
  759  799  840  882  925  969 1014 1060 1107 1155 1410 1464 1519 1575
 1632 1690 1749 1809 1870 1932 1995 2059]
memory = 5203.931136
int3c2e [1/1], AO [0:32], ncol = 13924
Symmetry pattern (k + [ 0.61221114 -0.61221114  0.30610557])*a= 2n pi
    make_kpt for [127 165]
kpt = [ 0.61221114 -0.61221114 -0.30610557]
adapted_ji_idx = [1180 1230 1281 1333 1386 1440 1495 1551 1608 1666 1725 1785]
memory = 5204.82816
int3c2e [1/1], AO [0:32], ncol = 13924
kpt = [ 0.          0.         -0.91831671]
adapted_ji_idx = [1830 1892 1955 2019]
memory = 5203.808256
int3c2e [1/1], AO [0:32], ncol = 13924
Cholesky decomposition for j2c at kpt 38
Symmetry pattern (k - [ 0.76526393 -0.45915836  0.15305279])*a= 2n pi
    make_kpt for uniq_kptji_ids [38 52 54 59]
kpt = [ 0.76526393 -0.45915836  0.15305279]
adapted_ji_idx = [ 149  167  186  557  591  626 1221 1271 1322]
memory = 5203.296256
int3c2e [1/1], AO [0:32], ncol = 13924
kpt = [ 0.15305279 -1.0713695   0.76526393]
adapted_ji_idx = [ 202  658 1370]
memory = 5203.890176
int3c2e [1/1], AO [0:32], ncol = 13924
kpt = [ 0.15305279  0.15305279 -0.45915836]
adapted_ji_idx = [ 211  233  256  305  331  358  415  445  476  683  721  760  841  883
  926 1015 1061 1108 1411 1465 1520 1633 1691 1750 1871 1933 1996]
memory = 5202.788352
int3c2e [1/1], AO [0:32], ncol = 13924
kpt = [-0.45915836 -0.45915836  0.15305279]
adapted_ji_idx = [ 276  382  504  796  966 1152 1572 1806 2056]
memory = 5204.770816
int3c2e [1/1], AO [0:32], ncol = 13924
Symmetry pattern (k + [ 0.76526393 -0.45915836  0.15305279])*a= 2n pi
    make_kpt for [130 140 168 169]
kpt = [ 1.0713695  -0.15305279 -0.76526393]
adapted_ji_idx = [1183 1389 1611]
memory = 5204.426752
int3c2e [1/1], AO [0:32], ncol = 13924
kpt = [ 0.45915836 -0.76526393 -0.15305279]
adapted_ji_idx = [1229 1280 1332 1439 1494 1550 1665 1724 1784]
memory = 5203.29216
int3c2e [1/1], AO [0:32], ncol = 13924
kpt = [ 0.45915836  0.45915836 -1.37747507]
adapted_ji_idx = [1833]
memory = 5203.451904
int3c2e [1/1], AO [0:32], ncol = 13924
kpt = [-0.15305279 -0.15305279 -0.76526393]
adapted_ji_idx = [1891 1954 2018]
memory = 5202.558976
int3c2e [1/1], AO [0:32], ncol = 13924
Cholesky decomposition for j2c at kpt 39
Symmetry pattern (k - [ 0.91831671 -0.30610557  0.        ])*a= 2n pi
    make_kpt for uniq_kptji_ids [39 48 55 58]
kpt = [ 0.91831671 -0.30610557  0.        ]
adapted_ji_idx = [ 150  168  558  592 1222 1272]
memory = 5202.784256
int3c2e [1/1], AO [0:32], ncol = 13924
kpt = [ 0.30610557 -0.91831671  0.61221114]
adapted_ji_idx = [ 183  203  623  659 1319 1371]
memory = 5203.685376
int3c2e [1/1], AO [0:32], ncol = 13924
kpt = [ 0.30610557  0.30610557 -0.61221114]
adapted_ji_idx = [ 212  234  306  332  416  446  684  722  842  884 1016 1062 1412 1466
 1634 1692 1872 1934]
memory = 5204.02944
int3c2e [1/1], AO [0:32], ncol = 13924
kpt = [-0.30610557 -0.30610557  0.        ]
adapted_ji_idx = [ 253  277  355  383  473  505  757  797  923  967 1105 1153 1517 1573
 1747 1807 1993 2057]
memory = 5204.529152
int3c2e [1/1], AO [0:32], ncol = 13924
Symmetry pattern (k + [ 0.91831671 -0.30610557  0.        ])*a= 2n pi
    make_kpt for [129 144 167 170]
kpt = [ 0.91831671 -0.30610557 -0.61221114]
adapted_ji_idx = [1182 1232 1388 1442 1610 1668]
memory = 5205.004288
int3c2e [1/1], AO [0:32], ncol = 13924
kpt = [ 0.30610557 -0.91831671  0.        ]
adapted_ji_idx = [1279 1331 1493 1549 1723 1783]
memory = 5204.451328
int3c2e [1/1], AO [0:32], ncol = 13924
kpt = [ 0.30610557  0.30610557 -1.22442229]
adapted_ji_idx = [1832 1894]
memory = 5203.509248
int3c2e [1/1], AO [0:32], ncol = 13924
kpt = [-0.30610557 -0.30610557 -0.61221114]
adapted_ji_idx = [1953 2017]
memory = 5203.6608
int3c2e [1/1], AO [0:32], ncol = 13924
Cholesky decomposition for j2c at kpt 40
Symmetry pattern (k - [ 1.0713695  -0.15305279 -0.15305279])*a= 2n pi
    make_kpt for uniq_kptji_ids [40 44 56 57]
kpt = [ 1.0713695  -0.15305279 -0.15305279]
adapted_ji_idx = [ 151  559 1223]
memory = 5203.308544
int3c2e [1/1], AO [0:32], ncol = 13924
kpt = [ 0.45915836 -0.76526393  0.45915836]
adapted_ji_idx = [ 165  184  204  589  624  660 1269 1320 1372]
memory = 5203.165184
int3c2e [1/1], AO [0:32], ncol = 13924
kpt = [ 0.45915836  0.45915836 -0.76526393]
adapted_ji_idx = [ 213  307  417  685  843 1017 1413 1635 1873]
memory = 5203.943424
int3c2e [1/1], AO [0:32], ncol = 13924
kpt = [-0.15305279 -0.15305279 -0.15305279]
adapted_ji_idx = [ 231  254  278  329  356  384  443  474  506  719  758  798  881  924
  968 1059 1106 1154 1463 1518 1574 1689 1748 1808 1931 1994 2058]
memory = 5203.427328
int3c2e [1/1], AO [0:32], ncol = 13924
Symmetry pattern (k + [ 1.0713695  -0.15305279 -0.15305279])*a= 2n pi
    make_kpt for [128 148 166 171]
kpt = [ 0.76526393 -0.45915836 -0.45915836]
adapted_ji_idx = [1181 1231 1282 1387 1441 1496 1609 1667 1726]
memory = 5203.820544
int3c2e [1/1], AO [0:32], ncol = 13924
kpt = [ 0.15305279 -1.0713695   0.15305279]
adapted_ji_idx = [1330 1548 1782]
memory = 5204.70528
int3c2e [1/1], AO [0:32], ncol = 13924
kpt = [ 0.15305279  0.15305279 -1.0713695 ]
adapted_ji_idx = [1831 1893 1956]
memory = 5203.49696
int3c2e [1/1], AO [0:32], ncol = 13924
kpt = [-0.45915836 -0.45915836 -0.45915836]
adapted_ji_idx = [2016]
memory = 5203.771392
int3c2e [1/1], AO [0:32], ncol = 13924
Cholesky decomposition for j2c at kpt 74
Symmetry pattern (k - [ 0.30610557 -0.30610557 -0.30610557])*a= 2n pi
    make_kpt for uniq_kptji_ids [74]
kpt = [ 0.30610557 -0.30610557 -0.30610557]
adapted_ji_idx = [ 528  562  597  633  670  708  747  787  828  870  913  957 1002 1048
 1095 1143 1192 1242 1293 1345 1398 1452 1507 1563 1620 1678 1737 1797
 1858 1920 1983 2047]
memory = 5202.489344
int3c2e [1/1], AO [0:32], ncol = 13924
Symmetry pattern (k + [ 0.30610557 -0.30610557 -0.30610557])*a= 2n pi
    make_kpt for [74]
Cholesky decomposition for j2c at kpt 75
Symmetry pattern (k - [ 0.45915836 -0.15305279 -0.45915836])*a= 2n pi
    make_kpt for uniq_kptji_ids [75 98]
kpt = [ 0.45915836 -0.15305279 -0.45915836]
adapted_ji_idx = [ 529  563  598  671  709  748  829  871  914 1003 1049 1096 1193 1243
 1294 1399 1453 1508 1621 1679 1738 1859 1921 1984]
memory = 5205.000192
int3c2e [1/1], AO [0:32], ncol = 13924
kpt = [-0.15305279 -0.76526393  0.15305279]
adapted_ji_idx = [ 630  784  954 1140 1342 1560 1794 2044]
memory = 5204.29568
int3c2e [1/1], AO [0:32], ncol = 13924
Symmetry pattern (k + [ 0.45915836 -0.15305279 -0.45915836])*a= 2n pi
    make_kpt for [77 90]
kpt = [ 0.76526393  0.15305279 -0.76526393]
adapted_ji_idx = [ 531  673  831 1005 1195 1401 1623 1861]
memory = 5203.37408
int3c2e [1/1], AO [0:32], ncol = 13924
kpt = [ 0.15305279 -0.45915836 -0.15305279]
adapted_ji_idx = [ 561  596  632  707  746  786  869  912  956 1047 1094 1142 1241 1292
 1344 1451 1506 1562 1677 1736 1796 1919 1982 2046]
memory = 5204.729856
int3c2e [1/1], AO [0:32], ncol = 13924
Cholesky decomposition for j2c at kpt 76
Symmetry pattern (k - [ 0.61221114  0.         -0.61221114])*a= 2n pi
    make_kpt for uniq_kptji_ids [76 94]
kpt = [ 0.61221114  0.         -0.61221114]
adapted_ji_idx = [ 530  564  672  710  830  872 1004 1050 1194 1244 1400 1454 1622 1680
 1860 1922]
memory = 5204.635648
int3c2e [1/1], AO [0:32], ncol = 13924
kpt = [ 0.         -0.61221114  0.        ]
adapted_ji_idx = [ 595  631  745  785  911  955 1093 1141 1291 1343 1505 1561 1735 1795
 1981 2045]
memory = 5203.894272
int3c2e [1/1], AO [0:32], ncol = 13924
Symmetry pattern (k + [ 0.61221114  0.         -0.61221114])*a= 2n pi
    make_kpt for [76 94]
Cholesky decomposition for j2c at kpt 78
Symmetry pattern (k - [ 0.45915836 -0.45915836 -0.15305279])*a= 2n pi
    make_kpt for uniq_kptji_ids [ 78 116]
kpt = [ 0.45915836 -0.45915836 -0.15305279]
adapted_ji_idx = [ 532  566  601  637  674  712  751  791  832  874  917  961 1196 1246
 1297 1349 1402 1456 1511 1567 1624 1682 1741 1801]
memory = 5204.885504
int3c2e [1/1], AO [0:32], ncol = 13924
kpt = [-0.15305279  0.15305279 -0.76526393]
adapted_ji_idx = [ 990 1036 1083 1131 1846 1908 1971 2035]
memory = 5204.987904
int3c2e [1/1], AO [0:32], ncol = 13924
Symmetry pattern (k + [ 0.45915836 -0.45915836 -0.15305279])*a= 2n pi
    make_kpt for [ 86 102]
kpt = [ 0.76526393 -0.76526393  0.15305279]
adapted_ji_idx = [ 540  574  609  645 1204 1254 1305 1357]
memory = 5204.570112
int3c2e [1/1], AO [0:32], ncol = 13924
kpt = [ 0.15305279 -0.15305279 -0.45915836]
adapted_ji_idx = [ 666  704  743  783  824  866  909  953  998 1044 1091 1139 1394 1448
 1503 1559 1616 1674 1733 1793 1854 1916 1979 2043]
memory = 5203.611648
int3c2e [1/1], AO [0:32], ncol = 13924
Cholesky decomposition for j2c at kpt 79
Symmetry pattern (k - [ 0.61221114 -0.30610557 -0.30610557])*a= 2n pi
    make_kpt for uniq_kptji_ids [ 79  99 117 122]
kpt = [ 0.61221114 -0.30610557 -0.30610557]
adapted_ji_idx = [ 533  567  602  675  713  752  833  875  918 1197 1247 1298 1403 1457
 1512 1625 1683 1742]
memory = 5204.312064
int3c2e [1/1], AO [0:32], ncol = 13924
kpt = [ 0.         -0.91831671  0.30610557]
adapted_ji_idx = [ 634  788  958 1346 1564 1798]
memory = 5204.373504
int3c2e [1/1], AO [0:32], ncol = 13924
kpt = [ 0.          0.30610557 -0.91831671]
adapted_ji_idx = [ 991 1037 1084 1847 1909 1972]
memory = 5204.365312
int3c2e [1/1], AO [0:32], ncol = 13924
kpt = [-0.61221114 -0.30610557 -0.30610557]
adapted_ji_idx = [1128 2032]
memory = 5204.307968
int3c2e [1/1], AO [0:32], ncol = 13924
Symmetry pattern (k + [ 0.61221114 -0.30610557 -0.30610557])*a= 2n pi
    make_kpt for [ 89  93 105 106]
kpt = [ 1.22442229 -0.30610557 -0.30610557]
adapted_ji_idx = [ 543 1207]
memory = 5204.02944
int3c2e [1/1], AO [0:32], ncol = 13924
kpt = [ 0.61221114 -0.91831671  0.30610557]
adapted_ji_idx = [ 573  608  644 1253 1304 1356]
memory = 5204.1728
int3c2e [1/1], AO [0:32], ncol = 13924
kpt = [ 0.61221114  0.30610557 -0.91831671]
adapted_ji_idx = [ 669  827 1001 1397 1619 1857]
memory = 5203.61984
int3c2e [1/1], AO [0:32], ncol = 13924
kpt = [ 0.         -0.30610557 -0.30610557]
adapted_ji_idx = [ 703  742  782  865  908  952 1043 1090 1138 1447 1502 1558 1673 1732
 1792 1915 1978 2042]
memory = 5204.156416
int3c2e [1/1], AO [0:32], ncol = 13924
Cholesky decomposition for j2c at kpt 80
Symmetry pattern (k - [ 0.76526393 -0.15305279 -0.45915836])*a= 2n pi
    make_kpt for uniq_kptji_ids [ 80  95 118 121]
kpt = [ 0.76526393 -0.15305279 -0.45915836]
adapted_ji_idx = [ 534  568  676  714  834  876 1198 1248 1404 1458 1626 1684]
memory = 5203.94752
int3c2e [1/1], AO [0:32], ncol = 13924
kpt = [ 0.15305279 -0.76526393  0.15305279]
adapted_ji_idx = [ 599  635  749  789  915  959 1295 1347 1509 1565 1739 1799]
memory = 5204.860928
int3c2e [1/1], AO [0:32], ncol = 13924
kpt = [ 0.15305279  0.45915836 -1.0713695 ]
adapted_ji_idx = [ 992 1038 1848 1910]
memory = 5202.919424
int3c2e [1/1], AO [0:32], ncol = 13924
kpt = [-0.45915836 -0.15305279 -0.45915836]
adapted_ji_idx = [1081 1129 1969 2033]
memory = 5202.755584
int3c2e [1/1], AO [0:32], ncol = 13924
Symmetry pattern (k + [ 0.76526393 -0.15305279 -0.45915836])*a= 2n pi
    make_kpt for [ 88  97 104 107]
kpt = [ 1.0713695  -0.45915836 -0.15305279]
adapted_ji_idx = [ 542  576 1206 1256]
memory = 5202.0224
int3c2e [1/1], AO [0:32], ncol = 13924
kpt = [ 0.45915836 -1.0713695   0.45915836]
adapted_ji_idx = [ 607  643 1303 1355]
memory = 5203.931136
int3c2e [1/1], AO [0:32], ncol = 13924
kpt = [ 0.45915836  0.15305279 -0.76526393]
adapted_ji_idx = [ 668  706  826  868 1000 1046 1396 1450 1618 1676 1856 1918]
memory = 5203.873792
int3c2e [1/1], AO [0:32], ncol = 13924
kpt = [-0.15305279 -0.45915836 -0.15305279]
adapted_ji_idx = [ 741  781  907  951 1089 1137 1501 1557 1731 1791 1977 2041]
memory = 5204.0704
int3c2e [1/1], AO [0:32], ncol = 13924
Cholesky decomposition for j2c at kpt 81
Symmetry pattern (k - [ 0.91831671  0.         -0.61221114])*a= 2n pi
    make_kpt for uniq_kptji_ids [ 81  91 119 120]
kpt = [ 0.91831671  0.         -0.61221114]
adapted_ji_idx = [ 535  677  835 1199 1405 1627]
memory = 5203.795968
int3c2e [1/1], AO [0:32], ncol = 13924
kpt = [ 0.30610557 -0.61221114  0.        ]
adapted_ji_idx = [ 565  600  636  711  750  790  873  916  960 1245 1296 1348 1455 1510
 1566 1681 1740 1800]
memory = 5204.287488
int3c2e [1/1], AO [0:32], ncol = 13924
kpt = [ 0.30610557  0.61221114 -1.22442229]
adapted_ji_idx = [ 993 1849]
memory = 5205.024768
int3c2e [1/1], AO [0:32], ncol = 13924
kpt = [-0.30610557  0.         -0.61221114]
adapted_ji_idx = [1035 1082 1130 1907 1970 2034]
memory = 5203.836928
int3c2e [1/1], AO [0:32], ncol = 13924
Symmetry pattern (k + [ 0.91831671  0.         -0.61221114])*a= 2n pi
    make_kpt for [ 87 101 103 108]
kpt = [ 0.91831671 -0.61221114  0.        ]
adapted_ji_idx = [ 541  575  610 1205 1255 1306]
memory = 5204.238336
int3c2e [1/1], AO [0:32], ncol = 13924
kpt = [ 0.30610557 -1.22442229  0.61221114]
adapted_ji_idx = [ 642 1354]
memory = 5204.291584
int3c2e [1/1], AO [0:32], ncol = 13924
kpt = [ 0.30610557  0.         -0.61221114]
adapted_ji_idx = [ 667  705  744  825  867  910  999 1045 1092 1395 1449 1504 1617 1675
 1734 1855 1917 1980]
memory = 5203.546112
int3c2e [1/1], AO [0:32], ncol = 13924
kpt = [-0.30610557 -0.61221114  0.        ]
adapted_ji_idx = [ 780  950 1136 1556 1790 2040]
memory = 5203.304448
int3c2e [1/1], AO [0:32], ncol = 13924
Cholesky decomposition for j2c at kpt 82
Symmetry pattern (k - [ 0.61221114 -0.61221114  0.        ])*a= 2n pi
    make_kpt for uniq_kptji_ids [ 82 109]
kpt = [ 0.61221114 -0.61221114  0.        ]
adapted_ji_idx = [ 536  570  605  641  678  716  755  795 1200 1250 1301 1353 1406 1460
 1515 1571]
memory = 5202.944
int3c2e [1/1], AO [0:32], ncol = 13924
kpt = [ 0.          0.         -0.61221114]
adapted_ji_idx = [ 820  862  905  949  994 1040 1087 1135 1612 1670 1729 1789 1850 1912
 1975 2039]
memory = 5204.578304
int3c2e [1/1], AO [0:32], ncol = 13924
Symmetry pattern (k + [ 0.61221114 -0.61221114  0.        ])*a= 2n pi
    make_kpt for [ 82 109]
Cholesky decomposition for j2c at kpt 83
Symmetry pattern (k - [ 0.76526393 -0.45915836 -0.15305279])*a= 2n pi
    make_kpt for uniq_kptji_ids [ 83 100 110 115]
kpt = [ 0.76526393 -0.45915836 -0.15305279]
adapted_ji_idx = [ 537  571  606  679  717  756 1201 1251 1302 1407 1461 1516]
memory = 5204.893696
int3c2e [1/1], AO [0:32], ncol = 13924
kpt = [ 0.15305279 -1.0713695   0.45915836]
adapted_ji_idx = [ 638  792 1350 1568]
memory = 5204.25472
int3c2e [1/1], AO [0:32], ncol = 13924
kpt = [ 0.15305279  0.15305279 -0.76526393]
adapted_ji_idx = [ 821  863  906  995 1041 1088 1613 1671 1730 1851 1913 1976]
memory = 5203.439616
int3c2e [1/1], AO [0:32], ncol = 13924
kpt = [-0.45915836 -0.45915836 -0.15305279]
adapted_ji_idx = [ 946 1132 1786 2036]
memory = 5204.86912
int3c2e [1/1], AO [0:32], ncol = 13924
Symmetry pattern (k + [ 0.76526393 -0.45915836 -0.15305279])*a= 2n pi
    make_kpt for [ 85  92 112 113]
kpt = [ 1.0713695  -0.15305279 -0.45915836]
adapted_ji_idx = [ 539  681 1203 1409]
memory = 5204.197376
int3c2e [1/1], AO [0:32], ncol = 13924
kpt = [ 0.45915836 -0.76526393  0.15305279]
adapted_ji_idx = [ 569  604  640  715  754  794 1249 1300 1352 1459 1514 1570]
memory = 5203.177472
int3c2e [1/1], AO [0:32], ncol = 13924
kpt = [ 0.45915836  0.45915836 -1.0713695 ]
adapted_ji_idx = [ 823  997 1615 1853]
memory = 5203.668992
int3c2e [1/1], AO [0:32], ncol = 13924
kpt = [-0.15305279 -0.15305279 -0.45915836]
adapted_ji_idx = [ 861  904  948 1039 1086 1134 1669 1728 1788 1911 1974 2038]
memory = 5202.726912
int3c2e [1/1], AO [0:32], ncol = 13924
Cholesky decomposition for j2c at kpt 84
Symmetry pattern (k - [ 0.91831671 -0.30610557 -0.30610557])*a= 2n pi
    make_kpt for uniq_kptji_ids [ 84  96 111 114]
kpt = [ 0.91831671 -0.30610557 -0.30610557]
adapted_ji_idx = [ 538  572  680  718 1202 1252 1408 1462]
memory = 5203.730432
int3c2e [1/1], AO [0:32], ncol = 13924
kpt = [ 0.30610557 -0.91831671  0.30610557]
adapted_ji_idx = [ 603  639  753  793 1299 1351 1513 1569]
memory = 5203.472384
int3c2e [1/1], AO [0:32], ncol = 13924
kpt = [ 0.30610557  0.30610557 -0.91831671]
adapted_ji_idx = [ 822  864  996 1042 1614 1672 1852 1914]
memory = 5202.939904
int3c2e [1/1], AO [0:32], ncol = 13924
kpt = [-0.30610557 -0.30610557 -0.30610557]
adapted_ji_idx = [ 903  947 1085 1133 1727 1787 1973 2037]
memory = 5204.082688
int3c2e [1/1], AO [0:32], ncol = 13924
Symmetry pattern (k + [ 0.91831671 -0.30610557 -0.30610557])*a= 2n pi
    make_kpt for [ 84  96 111 114]
    CPU time for j3c  54494.07 sec, wall time   3254.79 sec
    CPU time for Init get_k_kpts  54494.59 sec, wall time   3254.81 sec
    CPU time for get_k_kpts: make_kpt ki>=kj (0,*)      5.66 sec, wall time      0.31 sec
    CPU time for get_k_kpts: make_kpt ki>=kj (1,*)     17.31 sec, wall time      0.60 sec
    CPU time for get_k_kpts: make_kpt ki>=kj (2,*)     22.14 sec, wall time      0.77 sec
    CPU time for get_k_kpts: make_kpt ki>=kj (3,*)     33.12 sec, wall time      1.06 sec
    CPU time for get_k_kpts: make_kpt ki>=kj (4,*)     45.51 sec, wall time      1.63 sec
    CPU time for get_k_kpts: make_kpt ki>=kj (5,*)     55.20 sec, wall time      1.86 sec
    CPU time for get_k_kpts: make_kpt ki>=kj (6,*)     61.61 sec, wall time      2.10 sec
    CPU time for get_k_kpts: make_kpt ki>=kj (7,*)     67.09 sec, wall time      2.25 sec
    CPU time for get_k_kpts: make_kpt ki>=kj (8,*)     89.28 sec, wall time      2.88 sec
    CPU time for get_k_kpts: make_kpt ki>=kj (9,*)     96.80 sec, wall time      3.24 sec
    CPU time for get_k_kpts: make_kpt ki>=kj (10,*)    105.03 sec, wall time      3.43 sec
    CPU time for get_k_kpts: make_kpt ki>=kj (11,*)    108.54 sec, wall time      3.49 sec
    CPU time for get_k_kpts: make_kpt ki>=kj (12,*)    130.87 sec, wall time      4.32 sec
    CPU time for get_k_kpts: make_kpt ki>=kj (13,*)    127.12 sec, wall time      4.11 sec
    CPU time for get_k_kpts: make_kpt ki>=kj (14,*)    119.94 sec, wall time      3.81 sec
    CPU time for get_k_kpts: make_kpt ki>=kj (15,*)    139.48 sec, wall time      4.41 sec
    CPU time for get_k_kpts: make_kpt ki>=kj (16,*)    156.74 sec, wall time      4.96 sec
    CPU time for get_k_kpts: make_kpt ki>=kj (17,*)    162.65 sec, wall time      5.23 sec
    CPU time for get_k_kpts: make_kpt ki>=kj (18,*)    170.72 sec, wall time      5.45 sec
    CPU time for get_k_kpts: make_kpt ki>=kj (19,*)    164.53 sec, wall time      5.31 sec
    CPU time for get_k_kpts: make_kpt ki>=kj (20,*)    166.00 sec, wall time      5.25 sec
    CPU time for get_k_kpts: make_kpt ki>=kj (21,*)    165.21 sec, wall time      5.21 sec
    CPU time for get_k_kpts: make_kpt ki>=kj (22,*)    184.40 sec, wall time      5.88 sec
    CPU time for get_k_kpts: make_kpt ki>=kj (23,*)    180.88 sec, wall time      5.91 sec
    CPU time for get_k_kpts: make_kpt ki>=kj (24,*)    191.16 sec, wall time      6.04 sec
    CPU time for get_k_kpts: make_kpt ki>=kj (25,*)    206.68 sec, wall time      6.57 sec
    CPU time for get_k_kpts: make_kpt ki>=kj (26,*)    209.30 sec, wall time      6.65 sec
    CPU time for get_k_kpts: make_kpt ki>=kj (27,*)    220.79 sec, wall time      7.19 sec
    CPU time for get_k_kpts: make_kpt ki>=kj (28,*)    227.13 sec, wall time      7.18 sec
    CPU time for get_k_kpts: make_kpt ki>=kj (29,*)    239.28 sec, wall time      7.59 sec
    CPU time for get_k_kpts: make_kpt ki>=kj (30,*)    237.17 sec, wall time      7.50 sec
    CPU time for get_k_kpts: make_kpt ki>=kj (31,*)    261.50 sec, wall time      8.36 sec
    CPU time for get_k_kpts: make_kpt ki>=kj (32,*)    244.51 sec, wall time      7.76 sec
    CPU time for get_k_kpts: make_kpt ki>=kj (33,*)    253.74 sec, wall time      8.01 sec
    CPU time for get_k_kpts: make_kpt ki>=kj (34,*)    259.23 sec, wall time      8.19 sec
    CPU time for get_k_kpts: make_kpt ki>=kj (35,*)    254.32 sec, wall time      8.05 sec
    CPU time for get_k_kpts: make_kpt ki>=kj (36,*)    290.97 sec, wall time      9.26 sec
    CPU time for get_k_kpts: make_kpt ki>=kj (37,*)    310.66 sec, wall time      9.97 sec
    CPU time for get_k_kpts: make_kpt ki>=kj (38,*)    315.85 sec, wall time     10.09 sec
    CPU time for get_k_kpts: make_kpt ki>=kj (39,*)    326.29 sec, wall time     10.37 sec
    CPU time for get_k_kpts: make_kpt ki>=kj (40,*)    317.42 sec, wall time     10.03 sec
    CPU time for get_k_kpts: make_kpt ki>=kj (41,*)    328.70 sec, wall time     10.36 sec
    CPU time for get_k_kpts: make_kpt ki>=kj (42,*)    341.94 sec, wall time     11.00 sec
    CPU time for get_k_kpts: make_kpt ki>=kj (43,*)    334.80 sec, wall time     10.60 sec
    CPU time for get_k_kpts: make_kpt ki>=kj (44,*)    345.25 sec, wall time     11.07 sec
    CPU time for get_k_kpts: make_kpt ki>=kj (45,*)    368.98 sec, wall time     11.65 sec
    CPU time for get_k_kpts: make_kpt ki>=kj (46,*)    375.36 sec, wall time     11.84 sec
    CPU time for get_k_kpts: make_kpt ki>=kj (47,*)    365.79 sec, wall time     11.62 sec
    CPU time for get_k_kpts: make_kpt ki>=kj (48,*)    393.31 sec, wall time     12.62 sec
    CPU time for get_k_kpts: make_kpt ki>=kj (49,*)    388.57 sec, wall time     12.32 sec
    CPU time for get_k_kpts: make_kpt ki>=kj (50,*)    395.60 sec, wall time     12.48 sec
    CPU time for get_k_kpts: make_kpt ki>=kj (51,*)    399.04 sec, wall time     12.64 sec
    CPU time for get_k_kpts: make_kpt ki>=kj (52,*)    401.78 sec, wall time     12.69 sec
    CPU time for get_k_kpts: make_kpt ki>=kj (53,*)    390.20 sec, wall time     12.34 sec
    CPU time for get_k_kpts: make_kpt ki>=kj (54,*)    431.51 sec, wall time     13.70 sec
    CPU time for get_k_kpts: make_kpt ki>=kj (55,*)    442.84 sec, wall time     14.07 sec
    CPU time for get_k_kpts: make_kpt ki>=kj (56,*)    439.06 sec, wall time     13.84 sec
    CPU time for get_k_kpts: make_kpt ki>=kj (57,*)    458.11 sec, wall time     14.48 sec
    CPU time for get_k_kpts: make_kpt ki>=kj (58,*)    448.17 sec, wall time     14.24 sec
    CPU time for get_k_kpts: make_kpt ki>=kj (59,*)    476.72 sec, wall time     15.15 sec
    CPU time for get_k_kpts: make_kpt ki>=kj (60,*)    439.98 sec, wall time     14.02 sec
    CPU time for get_k_kpts: make_kpt ki>=kj (61,*)    447.72 sec, wall time     14.25 sec
    CPU time for get_k_kpts: make_kpt ki>=kj (62,*)    462.36 sec, wall time     15.02 sec
    CPU time for get_k_kpts: make_kpt ki>=kj (63,*)    446.42 sec, wall time     14.27 sec
Monkhorst pack size [4 4 4] ew_eta 1.046366873191483 ew_cut 6.717746044940423
Ewald components = 0, -0.590432236532393, 0.534590662479126
    CPU time for get_j pass 1    149.33 sec, wall time      5.12 sec
    CPU time for get_j pass 2      8.13 sec, wall time      3.22 sec
    CPU time for vj and vk  70921.74 sec, wall time   3781.89 sec
Ewald components = 1.37780080874323e-135, -879.68906505185, 776.814472849255
E1 = (-609.528899976179-2.804288919133757e-16j)  E_coul = (133.77759855666562-3.686287386450715e-17j)
init E= -578.625893622108
cond(S) = [ 394814.95907718  567211.69770014  425359.37509193  567211.69770585
  567211.69770375 1087179.30590195  803049.64163548  567845.71952747
  425359.37508858  803049.64166093 1677815.91325585  803049.6416592
  567211.69769882  567845.71952762  803049.6416481  1087179.30592447
  567211.69772423 1087179.30590209  803049.64166618  567845.71953064
 1087179.3058874   567211.69770746  567845.71952388  803049.64168353
  803049.64167243  567845.7195301   803049.64164422  143725.67461427
  567845.71953844  803049.64167329  143725.67461378  803049.641678
  425359.37512079  803049.64167077 1677815.91340973  803049.64166196
  803049.64162274  567845.71952043  803049.64161861  143725.67461383
 1677815.91345855  803049.64163951  425359.37508858  803049.6416599
  803049.64161369  143725.67461305  803049.64163503  567845.71951894
  567211.69772761  567845.71952487  803049.64167809 1087179.30590392
  567845.71954081  803049.64166581  143725.67461359  803049.64165256
  803049.64165793  143725.67461435  803049.64165968  567845.71953556
 1087179.30592107  803049.64166776  567845.71952436  567211.6977089 ]
    CPU time for initialize scf  71469.69 sec, wall time   3800.51 sec
HOMO = 0.378131863277  LUMO = 0.408044663349
     k-point                  mo_energy
   0 ( 0.000  0.000  0.000)   [-68.24643449 -68.2464266   -5.66740045  -5.66044136  -3.74915976
  -3.74911056  -3.74911056  -3.74791029  -3.74786855  -3.74786855
  -0.818953     0.37761221   0.37813186   0.37813186] [ 0.49755848  0.51231072  0.5123212   0.5123212   0.75466341  0.78324062
  0.78324062  0.92266873  0.922756    0.922756    1.05051147  1.44610268
  1.44613837  1.44613837  1.48885746  1.48885746  1.53520997  1.53520997
  1.53527192  1.67143124  1.67143124  1.67146386  1.88515563  1.88522744
  1.88522744  2.05009791  2.05009791  2.1650217   2.16508869  2.16508869
  2.23798983  2.23798983  2.24394125  2.27507404  2.27512762  2.27512762
  2.35161446  2.39113392  2.39113392  2.39122668  2.42655928  2.42659924
  2.42659924  2.54392616  3.11047355  3.11057827  3.11057827  3.37628138
  3.59571938  3.59571938  3.59572908  4.33950969  4.33950969  4.33951867
  6.86340295  6.86340295  6.91423552  6.91429335  6.91429335  6.95033187
  6.95033187  7.50013656  7.50018646  7.50018646 10.40057062 11.06445652
 11.4433923  11.44340342 11.44340342 11.87288129 11.87290561 11.87290561
 23.51762656 23.51762656 23.51764083 23.52966836 23.52966836 23.52966906
 23.5297898  23.53047891 23.53047891 23.53048077 23.53379495 23.53379495
 23.53380931 23.54964561 28.58335009 28.58335009 28.61034212 28.61035426
 28.61035426 28.63590286 28.63590286 28.93813863 28.93815075 28.93815075
 41.4467976  41.44681086 41.44681086 41.92974131 41.92975625 41.92975625
 58.07331134 59.55252476]
   1 (-0.000 -0.000  0.250)   [-68.24643509 -68.24642498  -5.66614106  -5.66061602  -3.7494801
  -3.74929364  -3.74924932  -3.74812617  -3.74784639  -3.74780954
  -0.69821477   0.08779546   0.32661381   0.3270585 ] [ 0.45838273  0.56538105  0.56538172  0.71417618  0.75540778  0.75541008
  0.80759819  0.93521121  1.07974345  1.07982494  1.20201246  1.22467835
  1.22473429  1.26931645  1.48801061  1.48807148  1.58814517  1.58817228
  1.61828911  1.69280266  1.71690788  1.82675995  1.82685067  1.86064247
  1.86064652  1.89067072  1.89069965  2.03575231  2.08374868  2.08376326
  2.20247338  2.26102148  2.261053    2.27889896  2.2897156   2.34837153
  2.40603722  2.40605425  2.5442299   2.5514248   2.55145355  2.63852776
  2.63858524  2.75054012  2.91201841  2.91205659  2.96832329  3.52309629
  3.909382    3.90940083  3.957585    4.25172508  4.2517455   4.25241079
  6.7970092   6.79703881  6.84557892  6.988252    6.98825777  7.00537308
  7.00539247  7.17402201  7.27118726  7.27120414 10.74648248 11.20252007
 11.59955062 11.63274179 11.63275689 11.8379815  11.83801553 11.90750466
 23.51785245 23.52143095 23.52144216 23.52623658 23.52623871 23.52847031
 23.53078901 23.53152488 23.53783995 23.53792997 23.53793039 23.54193317
 23.54194249 23.55551493 28.5476446  28.54765437 28.57687168 28.65362171
 28.6536264  28.66324516 28.66324561 28.76402174 28.81281688 28.81282188
 41.5567787  41.67567993 41.67569233 41.86401013 41.90105936 41.90107472
 58.84884549 60.07381885]
   2 (-0.000 -0.000  0.500)   [-68.24642879 -68.2464249   -5.6637505   -5.66140908  -3.75008712
  -3.7494238   -3.74937835  -3.74821592  -3.74779701  -3.74775984
  -0.45593447  -0.21340375   0.29663859   0.29707585] [ 0.42755071  0.5600479   0.56005931  0.75120949  0.90795035  0.9079854
  0.92728374  0.93768341  0.93779939  0.99415921  1.27142296  1.27258338
  1.37743863  1.37752717  1.4143512   1.4144238   1.49379023  1.56578405
  1.56579321  1.6528579   1.65292226  1.72074425  1.81828897  1.82552917
  1.82556211  1.83349235  1.83358731  1.90436931  2.17065776  2.21070879
  2.24831785  2.24833522  2.2530759   2.28008473  2.28008551  2.30744931
  2.61464281  2.61470429  2.69025308  2.70885556  2.70886628  2.71938234
  2.71939401  2.78765328  2.81422857  2.81427276  2.95686966  3.39711069
  3.60120361  3.60123262  3.82314371  3.89627235  4.31132042  4.31136973
  6.92527994  6.9253109   7.03389203  7.04430852  7.05798706  7.05801613
  7.08682816  7.08683436  7.20763262  7.20764201 10.65884145 11.06438766
 11.43132039 11.43134359 11.48418237 11.58422143 11.86905712 11.86909292
 23.51812206 23.52080006 23.52080576 23.52602643 23.5260308  23.52870601
 23.52907954 23.5294635  23.54338511 23.54339295 23.5438624  23.5438674
 23.55433545 23.55811432 28.61735607 28.61736729 28.68397183 28.68661369
 28.69079497 28.69080635 28.71154953 28.71155112 28.77789804 28.77790017
 41.13594309 41.45045409 41.45046813 41.48663125 41.92714518 41.92716073
 58.59217062 60.38118146]
   3 (-0.000 -0.000  0.750)   [-68.24643509 -68.24642498  -5.66614105  -5.66061602  -3.7494801
  -3.74929364  -3.74924932  -3.74812617  -3.74784639  -3.74780954
  -0.69821477   0.08779546   0.32661381   0.3270585 ] [ 0.45838273  0.56538105  0.56538172  0.71417618  0.75540778  0.75541008
  0.80759819  0.93521121  1.07974345  1.07982494  1.20201246  1.22467835
  1.22473429  1.26931645  1.48801061  1.48807148  1.58814517  1.58817228
  1.61828911  1.69280266  1.71690788  1.82675995  1.82685067  1.86064247
  1.86064652  1.89067073  1.89069965  2.03575231  2.08374868  2.08376326
  2.20247338  2.26102148  2.261053    2.27889896  2.2897156   2.34837153
  2.40603722  2.40605425  2.5442299   2.5514248   2.55145355  2.63852776
  2.63858524  2.75054012  2.91201842  2.91205659  2.96832329  3.52309629
  3.909382    3.90940083  3.957585    4.25172508  4.2517455   4.25241079
  6.7970092   6.79703881  6.84557892  6.988252    6.98825777  7.00537308
  7.00539247  7.17402201  7.27118726  7.27120414 10.74648248 11.20252008
 11.59955062 11.63274179 11.63275689 11.8379815  11.83801553 11.90750466
 23.51785245 23.52143095 23.52144216 23.52623658 23.52623871 23.52847031
 23.53078901 23.53152488 23.53783995 23.53792997 23.53793039 23.54193317
 23.54194249 23.55551493 28.5476446  28.54765437 28.57687168 28.65362171
 28.6536264  28.66324516 28.66324561 28.76402174 28.81281688 28.81282188
 41.5567787  41.67567993 41.67569233 41.86401012 41.90105936 41.90107472
 58.84884549 60.07381885]
   4 ( 0.000  0.250 -0.000)   [-68.24643509 -68.24642498  -5.66614105  -5.66061602  -3.7494801
  -3.74929364  -3.74924932  -3.74812617  -3.74784639  -3.74780954
  -0.69821477   0.08779546   0.32661381   0.3270585 ] [ 0.45838273  0.56538105  0.56538172  0.71417618  0.75540778  0.75541008
  0.80759819  0.93521121  1.07974345  1.07982494  1.20201246  1.22467835
  1.22473429  1.26931645  1.48801061  1.48807148  1.58814517  1.58817228
  1.61828911  1.69280266  1.71690788  1.82675995  1.82685067  1.86064247
  1.86064652  1.89067072  1.89069965  2.03575231  2.08374868  2.08376326
  2.20247338  2.26102148  2.261053    2.27889896  2.2897156   2.34837153
  2.40603722  2.40605425  2.5442299   2.5514248   2.55145355  2.63852776
  2.63858524  2.75054011  2.91201842  2.91205658  2.9683233   3.52309629
  3.909382    3.90940082  3.95758501  4.25172508  4.2517455   4.25241079
  6.7970092   6.79703881  6.84557892  6.988252    6.98825777  7.00537308
  7.00539247  7.17402201  7.27118726  7.27120414 10.74648248 11.20252007
 11.59955063 11.63274179 11.63275689 11.8379815  11.83801553 11.90750466
 23.51785245 23.52143095 23.52144216 23.52623658 23.52623871 23.52847031
 23.53078901 23.53152488 23.53783995 23.53792997 23.53793039 23.54193317
 23.54194249 23.55551493 28.5476446  28.54765437 28.57687168 28.65362171
 28.6536264  28.66324516 28.66324561 28.76402174 28.81281688 28.81282188
 41.5567787  41.67567993 41.67569233 41.86401012 41.90105936 41.90107472
 58.84884549 60.07381885]
   5 ( 0.000  0.250  0.250)   [-68.24643553 -68.24642432  -5.66577896  -5.66064299  -3.74948192
  -3.74944488  -3.74912037  -3.74843165  -3.74778078  -3.7477528
  -0.65831132   0.11950975   0.24860899   0.24901268] [ 0.42667373  0.54032877  0.67960948  0.67967046  0.77262783  0.83583404
  0.91432177  1.00608914  1.00615837  1.010456    1.19490298  1.19493246
  1.23329818  1.31893076  1.33374181  1.56062632  1.58184329  1.62158507
  1.62163111  1.68139998  1.68142481  1.70168087  1.70245449  1.92279166
  1.92285209  1.92323699  2.03554263  2.03555938  2.03810441  2.06934359
  2.17015517  2.26494499  2.26879068  2.26884764  2.32755289  2.32763308
  2.35359312  2.39607272  2.44123849  2.54567131  2.61152315  2.61152597
  2.69141795  2.88942408  2.88947494  2.90850655  3.16686284  3.4653849
  3.73654288  3.85443795  3.85444123  4.31062374  4.35733888  4.35737532
  6.76762965  6.87032149  6.87923181  6.87926106  6.91480347  7.01064075
  7.04588604  7.14245198  7.14247043  7.26974234 10.93053794 11.11133903
 11.46743404 11.46744736 11.52705918 11.86965683 12.04262513 12.042651
 23.51927525 23.51928422 23.52488008 23.52573222 23.52573271 23.52681372
 23.53079188 23.53612053 23.53635765 23.54048606 23.54048623 23.54590918
 23.54591674 23.55927644 28.53580852 28.58725701 28.59268508 28.59269269
 28.61444887 28.66961558 28.68638969 28.74077659 28.74078367 28.8203965
 41.47542455 41.47543432 41.52953234 41.93074747 42.16009079 42.16010215
 59.17237723 59.65621424]
   6 (-0.000  0.250  0.500)   [-68.24642874 -68.24642439  -5.66347856  -5.66133928  -3.74997369
  -3.74961028  -3.74920181  -3.74859301  -3.74773991  -3.74768679
  -0.42355491  -0.1269709    0.11865037   0.22560187] [ 0.45271894  0.6122532   0.66914294  0.68836074  0.87817379  0.90405962
  0.97650038  0.98853042  0.99566339  1.1516044   1.21702401  1.2485542
  1.27242474  1.27865969  1.29905025  1.40876209  1.45352597  1.51222878
  1.51709     1.66445758  1.68649583  1.73980467  1.76662206  1.79977539
[...]
  0.98324178  0.99098022  1.01903964  1.15231741  1.22470463  1.2611533
  1.2750607   1.28095421  1.30775934  1.41241311  1.46008395  1.51457979
  1.52040008  1.66481961  1.69398992  1.74600749  1.77661455  1.80718728
  1.8863553   1.90276503  1.99840702  2.01626569  2.09374646  2.09519877
  2.17617752  2.20011816  2.28604377  2.30481563  2.38116806  2.38836152
  2.46695151  2.54985029  2.60684412  2.67378629  2.67439889  2.72787186
  2.74195844  2.84185354  2.89106775  2.97652558  3.2299585   3.40913788
  3.4888679   3.53694157  3.83590306  4.02963277  4.14739321  4.17452751
  6.88923508  6.91592313  6.93977788  6.98407457  7.0048558   7.04886335
  7.05439217  7.08928378  7.14947457  7.16286434 10.9404105  11.17219868
 11.25890093 11.28632593 11.42453926 11.63780591 11.74699225 11.75079248
 23.50190289 23.5042307  23.50499251 23.50813304 23.51054108 23.512938
 23.51742099 23.51883492 23.52198326 23.52305038 23.52472246 23.52800904
 23.53398922 23.54270442 28.57882686 28.59232619 28.60873913 28.63230038
 28.64871371 28.66619629 28.66712121 28.69021267 28.72756971 28.73175616
 41.13950557 41.25029496 41.3468175  41.58605762 41.65207491 41.77344962
 59.25419103 60.18111385]
  56 ( 0.750  0.500  0.000)   [-6.83125321e+01 -6.83125302e+01 -5.66207279e+00 -5.66187070e+00
 -3.76804475e+00 -3.76801614e+00 -3.76771315e+00 -3.76737603e+00
 -3.76707879e+00 -3.76705716e+00 -2.75050558e-01 -1.20167961e-01
  3.95888351e-02  9.62368736e-02] [ 0.4925137   0.61834415  0.69815524  0.69867344  0.89024565  0.90641217
  0.98324178  0.99098023  1.01903964  1.1523174   1.22470463  1.2611533
  1.2750607   1.2809542   1.30775935  1.41241313  1.46008394  1.51457978
  1.52040008  1.66481961  1.69398992  1.74600749  1.77661455  1.80718727
  1.88635532  1.90276503  1.99840702  2.01626568  2.09374647  2.09519877
  2.17617752  2.20011816  2.28604376  2.30481563  2.38116806  2.38836152
  2.4669515   2.54985029  2.60684411  2.67378629  2.67439889  2.72787185
  2.74195845  2.84185354  2.89106776  2.97652558  3.2299585   3.40913788
  3.4888679   3.5369416   3.83590306  4.02963277  4.14739321  4.1745275
  6.88923508  6.91592313  6.93977788  6.98407457  7.0048558   7.04886335
  7.05439217  7.08928379  7.14947457  7.16286434 10.9404105  11.17219868
 11.25890093 11.28632594 11.42453926 11.63780591 11.74699226 11.75079247
 23.50190289 23.50423069 23.50499251 23.50813304 23.51054108 23.512938
 23.51742099 23.51883492 23.52198326 23.52305038 23.52472246 23.52800904
 23.53398922 23.54270442 28.57882686 28.5923262  28.60873913 28.63230038
 28.64871371 28.66619629 28.66712121 28.69021267 28.72756971 28.73175616
 41.13950557 41.25029496 41.3468175  41.58605761 41.65207491 41.77344962
 59.25419103 60.18111385]
  57 ( 0.750  0.500  0.250)   [-6.83125312e+01 -6.83125312e+01 -5.66197318e+00 -5.66197318e+00
 -3.76805625e+00 -3.76805625e+00 -3.76754472e+00 -3.76754472e+00
 -3.76704902e+00 -3.76704902e+00 -1.90282974e-01 -1.90282969e-01
  2.28534053e-02  2.28534488e-02] [ 0.60486216  0.60486218  0.66569554  0.66569554  0.91735641  0.91735642
  1.0191728   1.0191728   1.12630468  1.12630468  1.21866685  1.21866687
  1.28361983  1.28361983  1.31181329  1.31181329  1.43829078  1.43829079
  1.58497408  1.58497409  1.62163824  1.62163825  1.72701658  1.72701659
  1.86528315  1.86528316  2.07355138  2.07355139  2.14608062  2.14608063
  2.23607002  2.23607002  2.27268727  2.27268727  2.40969061  2.40969061
  2.48979135  2.48979135  2.60526995  2.60526996  2.7663878   2.7663878
  2.77574948  2.77574948  2.94882522  2.94882523  3.26265477  3.26265478
  3.37381768  3.37381769  3.92462628  3.92462629  4.07198805  4.07198806
  6.90021714  6.90021714  6.96579907  6.96579907  7.0482323   7.0482323
  7.08987775  7.08987776  7.20993577  7.20993577 11.14181623 11.14181624
 11.18969707 11.18969707 11.53800619 11.53800619 11.62561053 11.62561053
 23.50301093 23.50301093 23.50802376 23.50802376 23.51576715 23.51576715
 23.51707805 23.51707805 23.52276859 23.52276859 23.52877803 23.52877803
 23.52949623 23.52949623 28.58413019 28.58413019 28.62309943 28.62309943
 28.66505335 28.66505335 28.68817281 28.68817281 28.75572212 28.75572212
 41.14222266 41.14222266 41.50617587 41.50617587 41.52392879 41.52392879
 59.85703357 59.85703358]
  58 ( 0.750  0.500  0.500)   [-6.83125321e+01 -6.83125302e+01 -5.66207279e+00 -5.66187070e+00
 -3.76804475e+00 -3.76801614e+00 -3.76771315e+00 -3.76737603e+00
 -3.76707879e+00 -3.76705716e+00 -2.75050555e-01 -1.20167955e-01
  3.95887981e-02  9.62368732e-02] [ 0.49251372  0.61834415  0.69815524  0.69867345  0.89024565  0.90641217
  0.98324178  0.99098022  1.01903964  1.15231741  1.22470462  1.2611533
  1.27506071  1.2809542   1.30775934  1.41241313  1.46008395  1.51457979
  1.52040009  1.66481959  1.69398992  1.7460075   1.77661455  1.80718727
  1.88635531  1.90276503  1.99840702  2.01626568  2.09374646  2.09519877
  2.17617752  2.20011817  2.28604376  2.30481563  2.38116806  2.38836152
  2.4669515   2.54985029  2.60684411  2.6737863   2.67439889  2.72787185
  2.74195845  2.84185354  2.89106777  2.97652558  3.22995849  3.40913788
  3.4888679   3.53694159  3.83590307  4.02963277  4.14739321  4.1745275
  6.88923508  6.91592313  6.93977788  6.98407457  7.0048558   7.04886335
  7.05439217  7.08928378  7.14947457  7.16286434 10.9404105  11.17219868
 11.25890093 11.28632594 11.42453926 11.63780591 11.74699225 11.75079248
 23.50190289 23.5042307  23.50499251 23.50813304 23.51054108 23.512938
 23.51742099 23.51883491 23.52198326 23.52305038 23.52472246 23.52800904
 23.53398922 23.54270442 28.57882686 28.5923262  28.60873913 28.63230038
 28.64871371 28.66619629 28.66712121 28.69021267 28.72756971 28.73175616
 41.13950557 41.25029497 41.3468175  41.58605761 41.65207492 41.77344962
 59.25419103 60.18111385]
  59 ( 0.750  0.500  0.750)   [-6.83125325e+01 -6.83125298e+01 -5.66211357e+00 -5.66182820e+00
 -3.76803443e+00 -3.76797437e+00 -3.76777717e+00 -3.76730872e+00
 -3.76711297e+00 -3.76706382e+00 -3.10665141e-01 -7.17610865e-02
  2.93453495e-02  1.40308349e-01] [ 0.539307    0.64516417  0.65535856  0.71118785  0.71688343  0.87430543
  0.97092738  1.00108834  1.03327373  1.15576297  1.19925839  1.20965462
  1.26703828  1.37305117  1.45025614  1.45806097  1.45885424  1.53630627
  1.58263217  1.64199931  1.66534265  1.69828245  1.73827739  1.86965207
  1.88259705  1.89477303  2.02105484  2.04172747  2.04949933  2.05617261
  2.21509572  2.22155084  2.22342194  2.31617616  2.41784078  2.43629746
  2.48109136  2.49084147  2.57406456  2.62107468  2.6671076   2.73623677
  2.78472405  2.86035057  2.9086472   2.95341567  3.10805315  3.31966754
  3.5948349   3.69526393  3.83006553  4.14136664  4.17039435  4.24346339
  6.81573508  6.89664565  6.91766716  6.97308026  7.03930575  7.06223912
  7.09731822  7.10893961  7.14338002  7.20140187 11.0266732  11.09809781
 11.34931578 11.40732221 11.41306828 11.72460362 11.75234383 11.79971873
 23.50215266 23.50379783 23.50578641 23.50683103 23.50901904 23.51457243
 23.51678346 23.51836809 23.51853751 23.52357437 23.52395905 23.52540882
 23.52741607 23.54228561 28.53805938 28.58396796 28.59639876 28.62671191
 28.65572707 28.67561497 28.69361401 28.69877149 28.72369919 28.7491683
 40.99147515 41.39219608 41.39320414 41.71037181 41.73180104 41.74576695
 59.62654795 60.17082173]
  60 ( 0.750  0.750  0.000)   [-6.83125329e+01 -6.83125290e+01 -5.66216931e+00 -5.66176790e+00
 -3.76797791e+00 -3.76797791e+00 -3.76779175e+00 -3.76728692e+00
 -3.76710469e+00 -3.76710469e+00 -3.61107758e-01  3.51296894e-02
  1.14345268e-01  1.14345271e-01] [ 0.47459869  0.56739619  0.69247311  0.69247312  0.80888106  0.82981395
  0.9168395   1.00489778  1.01166055  1.01166055  1.20028964  1.20028964
  1.2396462   1.3347298   1.33737631  1.56925759  1.58614294  1.63259536
  1.63259536  1.68449602  1.68449603  1.70281702  1.71000217  1.93295219
  1.93295219  1.93481057  2.04161831  2.04161832  2.04196243  2.07803059
  2.17568867  2.26734866  2.26761677  2.26761679  2.33009397  2.33009398
  2.35891355  2.4066462   2.44724772  2.55376351  2.62014783  2.62014783
  2.68892376  2.89833922  2.89833923  2.90734685  3.16957487  3.47771544
  3.73940371  3.8602724   3.86027241  4.3135347   4.3592702   4.35927021
  6.75714769  6.85969616  6.86830983  6.86830983  6.90486882  7.00079879
  7.03554789  7.1340011   7.1340011   7.26084047 10.92528149 11.10454167
 11.45470768 11.45470769 11.51472239 11.85634532 12.02933036 12.02933037
 23.50147074 23.50147074 23.5070797  23.50787063 23.50787063 23.50895428
 23.51294152 23.51840023 23.51855884 23.52263567 23.52263567 23.52808985
 23.52808985 23.54153534 28.51053554 28.5618954  28.5673893  28.5673893
 28.58912051 28.64431892 28.66106917 28.71572518 28.71572519 28.79532011
 41.43676333 41.43676334 41.49076709 41.89195141 42.1212407  42.1212407
 59.13554781 59.61920466]
  61 ( 0.750  0.750  0.250)   [-6.83125321e+01 -6.83125302e+01 -5.66207279e+00 -5.66187070e+00
 -3.76804475e+00 -3.76801614e+00 -3.76771315e+00 -3.76737603e+00
 -3.76707879e+00 -3.76705716e+00 -2.75050559e-01 -1.20167952e-01
  3.95888190e-02  9.62368808e-02] [ 0.4925137   0.61834415  0.69815524  0.69867344  0.89024565  0.90641217
  0.98324178  0.99098022  1.01903964  1.15231741  1.22470463  1.2611533
  1.2750607   1.28095421  1.30775934  1.41241311  1.46008395  1.51457979
  1.52040008  1.6648196   1.69398992  1.74600749  1.77661455  1.80718728
  1.88635531  1.90276503  1.99840702  2.01626569  2.09374646  2.09519877
  2.17617752  2.20011817  2.28604377  2.30481563  2.38116806  2.38836153
  2.46695151  2.54985029  2.60684412  2.67378629  2.67439888  2.72787186
  2.74195844  2.84185355  2.89106775  2.97652558  3.22995849  3.40913788
  3.48886792  3.53694157  3.83590306  4.02963277  4.14739321  4.17452751
  6.88923508  6.91592313  6.93977788  6.98407457  7.0048558   7.04886335
  7.05439217  7.08928379  7.14947457  7.16286434 10.9404105  11.17219868
 11.25890093 11.28632594 11.42453926 11.63780591 11.74699226 11.75079248
 23.50190289 23.5042307  23.50499251 23.50813304 23.51054108 23.512938
 23.51742099 23.51883492 23.52198326 23.52305038 23.52472246 23.52800904
 23.53398922 23.54270442 28.57882686 28.59232619 28.60873913 28.63230038
 28.64871371 28.66619629 28.66712121 28.69021267 28.72756971 28.73175616
 41.13950557 41.25029496 41.3468175  41.58605762 41.65207491 41.77344962
 59.25419103 60.18111385]
  62 ( 0.750  0.750  0.500)   [-6.83125325e+01 -6.83125298e+01 -5.66211357e+00 -5.66182820e+00
 -3.76803443e+00 -3.76797437e+00 -3.76777717e+00 -3.76730872e+00
 -3.76711297e+00 -3.76706382e+00 -3.10665141e-01 -7.17610865e-02
  2.93453495e-02  1.40308349e-01] [ 0.539307    0.64516417  0.65535856  0.71118785  0.71688343  0.87430543
  0.97092738  1.00108834  1.03327373  1.15576298  1.19925839  1.20965462
  1.26703828  1.37305117  1.45025614  1.45806097  1.45885424  1.53630627
  1.58263217  1.64199931  1.66534265  1.69828245  1.73827738  1.86965208
  1.88259705  1.89477303  2.02105484  2.04172747  2.04949933  2.05617261
  2.21509572  2.22155084  2.22342194  2.31617616  2.41784078  2.43629746
  2.48109136  2.49084147  2.57406456  2.62107468  2.6671076   2.73623677
  2.78472404  2.86035057  2.9086472   2.95341568  3.10805315  3.31966757
  3.5948349   3.69526392  3.83006552  4.14136664  4.17039435  4.24346338
  6.81573508  6.89664565  6.91766716  6.97308026  7.03930575  7.06223912
  7.09731822  7.10893961  7.14338002  7.20140187 11.0266732  11.09809781
 11.34931578 11.40732221 11.41306828 11.72460362 11.75234383 11.79971873
 23.50215266 23.50379783 23.50578641 23.50683103 23.50901904 23.51457243
 23.51678346 23.51836809 23.51853751 23.52357437 23.52395905 23.52540882
 23.52741607 23.54228561 28.53805938 28.58396796 28.59639876 28.62671191
 28.65572707 28.67561497 28.69361401 28.69877149 28.72369919 28.7491683
 40.99147515 41.39219608 41.39320414 41.71037181 41.73180104 41.74576695
 59.62654795 60.17082173]
  63 ( 0.750  0.750  0.750)   [-6.83125331e+01 -6.83125287e+01 -5.66219274e+00 -5.66174198e+00
 -3.76793229e+00 -3.76793229e+00 -3.76788080e+00 -3.76719840e+00
 -3.76714193e+00 -3.76714193e+00 -3.75930287e-01  1.49294990e-02
  1.67725650e-01  1.67725650e-01] [ 0.52569761  0.5876361   0.5876361   0.74917936  0.75057789  0.75057789
  0.81482618  0.94095958  1.08640973  1.08640973  1.20584944  1.22924488
  1.22924488  1.26941348  1.49970935  1.49970935  1.59972719  1.59972719
  1.62620275  1.70225403  1.72531935  1.82956148  1.82956148  1.8678329
  1.8678329   1.89471522  1.89471522  2.03620821  2.09326058  2.09326058
  2.20610589  2.2643213   2.2643213   2.28572116  2.29957665  2.36048344
  2.40845787  2.40845787  2.54875135  2.55495421  2.55495421  2.64367993
  2.64367993  2.75123121  2.91773841  2.91773842  2.97425496  3.53233216
  3.91364501  3.91364502  3.95852916  4.25479109  4.2547911   4.25575191
  6.78595189  6.78595189  6.83537329  6.97851155  6.97851156  6.99508391
  6.99508391  7.16516482  7.26246323  7.26246323 10.74080293 11.19474555
 11.5878171  11.62055805 11.62055805 11.82416774 11.82416774 11.8951724
 23.5000499  23.50362385 23.50362385 23.508376   23.508376   23.51066476
 23.5129172  23.51372414 23.52006273 23.52006273 23.52008017 23.52412499
 23.52412499 23.53778558 28.52232603 28.52232603 28.55163106 28.62832113
 28.62832113 28.63793121 28.63793121 28.73894801 28.78774376 28.78774376
 41.51808249 41.63709401 41.63709401 41.82515822 41.8621454  41.8621454
 58.81208441 60.0367668 ]
    CPU time for get_k_kpts: make_kpt ki>=kj (0,*)      4.34 sec, wall time      0.15 sec
    CPU time for get_k_kpts: make_kpt ki>=kj (1,*)     11.59 sec, wall time      0.37 sec
    CPU time for get_k_kpts: make_kpt ki>=kj (2,*)     16.90 sec, wall time      0.53 sec
    CPU time for get_k_kpts: make_kpt ki>=kj (3,*)     22.87 sec, wall time      0.72 sec
    CPU time for get_k_kpts: make_kpt ki>=kj (4,*)     28.65 sec, wall time      0.90 sec
    CPU time for get_k_kpts: make_kpt ki>=kj (5,*)     35.13 sec, wall time      1.10 sec
    CPU time for get_k_kpts: make_kpt ki>=kj (6,*)     42.10 sec, wall time      1.32 sec
    CPU time for get_k_kpts: make_kpt ki>=kj (7,*)     45.14 sec, wall time      1.42 sec
    CPU time for get_k_kpts: make_kpt ki>=kj (8,*)     54.13 sec, wall time      1.70 sec
    CPU time for get_k_kpts: make_kpt ki>=kj (9,*)     62.17 sec, wall time      1.95 sec
    CPU time for get_k_kpts: make_kpt ki>=kj (10,*)     69.48 sec, wall time      2.18 sec
    CPU time for get_k_kpts: make_kpt ki>=kj (11,*)     71.91 sec, wall time      2.26 sec
    CPU time for get_k_kpts: make_kpt ki>=kj (12,*)     80.58 sec, wall time      2.53 sec
    CPU time for get_k_kpts: make_kpt ki>=kj (13,*)     90.02 sec, wall time      2.84 sec
    CPU time for get_k_kpts: make_kpt ki>=kj (14,*)     92.62 sec, wall time      2.91 sec
    CPU time for get_k_kpts: make_kpt ki>=kj (15,*)     97.35 sec, wall time      3.06 sec
    CPU time for get_k_kpts: make_kpt ki>=kj (16,*)    100.78 sec, wall time      3.16 sec
    CPU time for get_k_kpts: make_kpt ki>=kj (17,*)    105.76 sec, wall time      3.32 sec
    CPU time for get_k_kpts: make_kpt ki>=kj (18,*)    112.25 sec, wall time      3.52 sec
    CPU time for get_k_kpts: make_kpt ki>=kj (19,*)    117.88 sec, wall time      3.70 sec
    CPU time for get_k_kpts: make_kpt ki>=kj (20,*)    120.43 sec, wall time      3.78 sec
    CPU time for get_k_kpts: make_kpt ki>=kj (21,*)    130.28 sec, wall time      4.10 sec
    CPU time for get_k_kpts: make_kpt ki>=kj (22,*)    131.83 sec, wall time      4.14 sec
    CPU time for get_k_kpts: make_kpt ki>=kj (23,*)    136.82 sec, wall time      4.30 sec
    CPU time for get_k_kpts: make_kpt ki>=kj (24,*)    146.51 sec, wall time      4.60 sec
    CPU time for get_k_kpts: make_kpt ki>=kj (25,*)    148.04 sec, wall time      4.65 sec
    CPU time for get_k_kpts: make_kpt ki>=kj (26,*)    157.75 sec, wall time      4.95 sec
    CPU time for get_k_kpts: make_kpt ki>=kj (27,*)    158.45 sec, wall time      4.97 sec
    CPU time for get_k_kpts: make_kpt ki>=kj (28,*)    167.58 sec, wall time      5.26 sec
    CPU time for get_k_kpts: make_kpt ki>=kj (29,*)    176.78 sec, wall time      5.55 sec
    CPU time for get_k_kpts: make_kpt ki>=kj (30,*)    178.13 sec, wall time      5.59 sec
    CPU time for get_k_kpts: make_kpt ki>=kj (31,*)    191.74 sec, wall time      6.05 sec
    CPU time for get_k_kpts: make_kpt ki>=kj (32,*)    191.39 sec, wall time      6.00 sec
    CPU time for get_k_kpts: make_kpt ki>=kj (33,*)    200.48 sec, wall time      6.29 sec
    CPU time for get_k_kpts: make_kpt ki>=kj (34,*)    206.44 sec, wall time      6.48 sec
    CPU time for get_k_kpts: make_kpt ki>=kj (35,*)    212.06 sec, wall time      6.65 sec
    CPU time for get_k_kpts: make_kpt ki>=kj (36,*)    215.19 sec, wall time      6.75 sec
    CPU time for get_k_kpts: make_kpt ki>=kj (37,*)    223.22 sec, wall time      7.00 sec
    CPU time for get_k_kpts: make_kpt ki>=kj (38,*)    231.21 sec, wall time      7.26 sec
    CPU time for get_k_kpts: make_kpt ki>=kj (39,*)    238.85 sec, wall time      7.49 sec
    CPU time for get_k_kpts: make_kpt ki>=kj (40,*)    242.45 sec, wall time      7.61 sec
    CPU time for get_k_kpts: make_kpt ki>=kj (41,*)    249.10 sec, wall time      7.81 sec
    CPU time for get_k_kpts: make_kpt ki>=kj (42,*)    257.20 sec, wall time      8.07 sec
    CPU time for get_k_kpts: make_kpt ki>=kj (43,*)    260.40 sec, wall time      8.17 sec
    CPU time for get_k_kpts: make_kpt ki>=kj (44,*)    269.71 sec, wall time      8.46 sec
    CPU time for get_k_kpts: make_kpt ki>=kj (45,*)    273.99 sec, wall time      8.61 sec
    CPU time for get_k_kpts: make_kpt ki>=kj (46,*)    279.28 sec, wall time      8.77 sec
    CPU time for get_k_kpts: make_kpt ki>=kj (47,*)    299.95 sec, wall time      9.51 sec
    CPU time for get_k_kpts: make_kpt ki>=kj (48,*)    287.24 sec, wall time      9.01 sec
    CPU time for get_k_kpts: make_kpt ki>=kj (49,*)    296.27 sec, wall time      9.30 sec
    CPU time for get_k_kpts: make_kpt ki>=kj (50,*)    296.29 sec, wall time      9.30 sec
    CPU time for get_k_kpts: make_kpt ki>=kj (51,*)    306.39 sec, wall time      9.61 sec
    CPU time for get_k_kpts: make_kpt ki>=kj (52,*)    307.38 sec, wall time      9.65 sec
    CPU time for get_k_kpts: make_kpt ki>=kj (53,*)    289.78 sec, wall time      9.09 sec
    CPU time for get_k_kpts: make_kpt ki>=kj (54,*)    313.05 sec, wall time      9.82 sec
    CPU time for get_k_kpts: make_kpt ki>=kj (55,*)    322.84 sec, wall time     10.13 sec
    CPU time for get_k_kpts: make_kpt ki>=kj (56,*)    321.12 sec, wall time     10.07 sec
    CPU time for get_k_kpts: make_kpt ki>=kj (57,*)    332.30 sec, wall time     10.43 sec
    CPU time for get_k_kpts: make_kpt ki>=kj (58,*)    341.13 sec, wall time     10.71 sec
    CPU time for get_k_kpts: make_kpt ki>=kj (59,*)    363.11 sec, wall time     11.51 sec
    CPU time for get_k_kpts: make_kpt ki>=kj (60,*)    348.66 sec, wall time     10.95 sec
    CPU time for get_k_kpts: make_kpt ki>=kj (61,*)    380.42 sec, wall time     11.95 sec
    CPU time for get_k_kpts: make_kpt ki>=kj (62,*)    381.88 sec, wall time     12.01 sec
    CPU time for get_k_kpts: make_kpt ki>=kj (63,*)    380.85 sec, wall time     11.98 sec
Monkhorst pack size [4 4 4] ew_eta 1.046366873191483 ew_cut 6.717746044940423
Ewald components = 0, -0.590432236532393, 0.534590662479126
    CPU time for get_j pass 1    152.54 sec, wall time      4.98 sec
    CPU time for get_j pass 2      8.08 sec, wall time      3.16 sec
    CPU time for vj and vk  12391.56 sec, wall time    392.32 sec
Ewald components = 1.37780080874323e-135, -879.68906505185, 776.814472849255
E1 = (-608.6181803210593-5.504747351102563e-16j)  E_coul = (133.55416607341633-1.289622769453026e-16j)
Extra cycle  E= -577.938606450238  delta_E= -8.47e-10  |g|= 8.66e-05  |ddm|= 0.00144
    CPU time for scf_cycle 159266.55 sec, wall time   6587.35 sec
    CPU time for SCF 159266.59 sec, wall time   6587.39 sec
converged SCF energy = -577.938606450238
