#INFO: **** input file is /burg/ccce/users/eav2136/projects/core_level_spectroscopy/01_peommp2_cbe/meanfield.py ****
#!/usr/bin/env python
import json
from pyscf.pbc import gto, scf
from pyscf.pbc.tools import lattice, pyscf_ase
from pyscf.pbc.scf import chkfile
from fileutils import load, dump
import sys

material = load("data/{}".format(sys.argv[1]))
# Create Cell
cell = gto.Cell()
ase_atom = lattice.get_ase_atom(material["formula"])
cell.atom = pyscf_ase.ase_atoms_to_pyscf(ase_atom)
cell.a = ase_atom.cell[:]
cell.unit = "B"
cell.basis = material["basis"]
cell.exp_to_discard = material["exp_to_discard"]
cell.verbose = 7
cell.build()

# Mean Field
kdensity = material["kdensity"]
kmesh = [kdensity, kdensity, kdensity]
kpts = cell.make_kpts(kmesh, scaled_center=material["vb_scaled_center"])
mymf = scf.KRHF(cell, kpts=kpts, exxdiv="ewald")
mymf.chkfile = "data/{}".format(material["chk"])
mymf = mymf.density_fit()
mymf.with_df._cderi_to_save = "data/{}".format(material["cderi"])
ekrhf = mymf.kernel()
convergence = mymf.converged
mymf_data = dict([("ekrhf", float(ekrhf)),
                  ("convergence", bool(convergence))])
dump(mymf_data, "data/{}".format(material["ekrhf"]))
#INFO: ******************** input file end ********************


System: uname_result(system='Linux', node='g106', release='4.18.0-193.el8.x86_64', version='#1 SMP Fri Mar 27 14:35:58 UTC 2020', machine='x86_64')  Threads 32
Python 3.10.12 (main, Jul 29 2023, 11:27:27) [GCC 13.2.0]
numpy 1.25.1  scipy 1.10.1
Date: Mon Jan 15 18:47:34 2024
PySCF version 2.0.1
PySCF path  /burg/berkelbach/users/eav2136/builds/pyscf/projected-cvs/pyscf
GIT ORIG_HEAD 0bfbc692adf3ea63b8a509210433219cd1c472a2
GIT HEAD (branch projected-cvs) e14caaa2dddc538b9be2d86f01e5b456fc92da36

[ENV] PYSCF_TMPDIR /burg/ccce/users/eav2136/projects/core_level_spectroscopy/01_peommp2_cbe/tmp
[ENV] PYSCF_MAX_MEMORY 700000
[CONFIG] DEBUG = False
[CONFIG] MAX_MEMORY = 700000
[CONFIG] TMPDIR = /burg/ccce/users/eav2136/projects/core_level_spectroscopy/01_peommp2_cbe/tmp
[CONFIG] UNIT = angstrom
[CONFIG] VERBOSE = 3
[CONFIG] conf_file = None
[INPUT] verbose = 7
[INPUT] max_memory = 700000 
[INPUT] num. atoms = 2
[INPUT] num. electrons = 20
[INPUT] charge = 0
[INPUT] spin (= nelec alpha-beta = 2S) = 0
[INPUT] symmetry False subgroup None
[INPUT] Mole.unit = B
[INPUT]  1 Si     0.000000000000   0.000000000000   0.000000000000 AA    0.000000000000   0.000000000000   0.000000000000 Bohr
[INPUT]  2 C      1.087499921985   1.087499921985   1.087499921985 AA    2.055077013037   2.055077013037   2.055077013037 Bohr
[INPUT] ---------------- BASIS SET ---------------- 
[INPUT] l, kappa, [nprim/nctr], expnt,             c_1 c_2 ...
[INPUT] Si
[INPUT] 0    0    [13   /3   ]  254900            6.25101e-05 -1.6637e-05 4.26257e-06
                                38190             0.000485553 -0.00012931 3.31062e-05
                                8690              0.00254516 -0.000678828 0.000174015
                                2462              0.0105866 -0.00284117 0.000727574
                                804.8             0.0368787 -0.0100551 0.00258333
                                291.3             0.107479 -0.0305774 0.00786354
                                113.6             0.247936 -0.0777256 0.0202155
                                46.75             0.390927 -0.154236 0.040732
                                19.82             0.302026 -0.180368 0.0499358
                                7.708             0.0559236 0.0798218 -0.0249396
                                3.34              -0.00402406 0.547441 -0.19035
                                1.402             0.0025803 0.480119 -0.31835
                                0.207             0.00060793 -0.0106996 0.68118
[INPUT] 0    0    [1    /1   ]  0.4387               1
[INPUT] 0    0    [1    /1   ]  0.07944              1
[INPUT] 1    0    [7    /2   ]  481.5             0.00192045 -0.00040522
                                113.9             0.0153552 -0.00335896
                                36.23             0.0713991 -0.015286
                                13.34             0.213052 -0.0489218
                                5.252             0.390354 -0.0855008
                                2.12              0.393721 -0.112137
                                0.2528            0.0039563 0.551919
[INPUT] 1    0    [1    /1   ]  0.8561               1
[INPUT] 1    0    [1    /1   ]  0.07889              1
[INPUT] 2    0    [1    /1   ]  0.159                1
[INPUT] 2    0    [1    /1   ]  0.481                1
[INPUT] 3    0    [1    /1   ]  0.336                1
[INPUT] 0    0    [1    /1   ]  9.164                1
[INPUT] 0    0    [1    /1   ]  1.621                1
[INPUT] 1    0    [1    /1   ]  6.458                1
[INPUT] 1    0    [1    /1   ]  2.517                1
[INPUT] 2    0    [1    /1   ]  10.671               1
[INPUT] 2    0    [1    /1   ]  3.308                1
[INPUT] 3    0    [1    /1   ]  7.001                1
[INPUT] C
[INPUT] 0    0    [8    /2   ]  8236              0.000531 -0.000113
                                1235              0.004108 -0.000878
                                280.8             0.021087 -0.00454
                                79.27             0.081853 -0.018133
                                25.59             0.234817 -0.05576
                                8.997             0.434401 -0.126895
                                3.319             0.346129 -0.170352
                                0.3643            -0.008983 0.598684
[INPUT] 0    0    [1    /1   ]  0.9059               1
[INPUT] 0    0    [1    /1   ]  0.1285               1
[INPUT] 1    0    [3    /1   ]  18.71             0.014031
                                4.133             0.086866
                                1.2               0.290216
[INPUT] 1    0    [1    /1   ]  0.3827               1
[INPUT] 1    0    [1    /1   ]  0.1209               1
[INPUT] 2    0    [1    /1   ]  1.097                1
[INPUT] 2    0    [1    /1   ]  0.318                1
[INPUT] 3    0    [1    /1   ]  0.761                1
[INPUT] 0    0    [1    /1   ]  4.292                1
[INPUT] 0    0    [1    /1   ]  11.876               1
[INPUT] 1    0    [1    /1   ]  8.778                1
[INPUT] 1    0    [1    /1   ]  33.19                1
[INPUT] 2    0    [1    /1   ]  14.839               1

Ewald components = 9.00674411881527e-134, -644.974612150364, 572.081161138653
nuclear repulsion = -72.8934510117114
number of shells = 30
number of NR pGTOs = 139
number of NR cGTOs = 102
basis = ccpcvtz
ecp = {}
bas 0, expnt(s) = [2.549e+05 3.819e+04 8.690e+03 2.462e+03 8.048e+02 2.913e+02 1.136e+02
 4.675e+01 1.982e+01 7.708e+00 3.340e+00 1.402e+00 2.070e-01]
bas 1, expnt(s) = [0.4387]
bas 2, expnt(s) = [0.07944]
bas 3, expnt(s) = [4.815e+02 1.139e+02 3.623e+01 1.334e+01 5.252e+00 2.120e+00 2.528e-01]
bas 4, expnt(s) = [0.8561]
bas 5, expnt(s) = [0.07889]
bas 6, expnt(s) = [0.159]
bas 7, expnt(s) = [0.481]
bas 8, expnt(s) = [0.336]
bas 9, expnt(s) = [9.164]
bas 10, expnt(s) = [1.621]
bas 11, expnt(s) = [6.458]
bas 12, expnt(s) = [2.517]
bas 13, expnt(s) = [10.671]
bas 14, expnt(s) = [3.308]
bas 15, expnt(s) = [7.001]
bas 16, expnt(s) = [8.236e+03 1.235e+03 2.808e+02 7.927e+01 2.559e+01 8.997e+00 3.319e+00
 3.643e-01]
bas 17, expnt(s) = [0.9059]
bas 18, expnt(s) = [0.1285]
bas 19, expnt(s) = [18.71   4.133  1.2  ]
bas 20, expnt(s) = [0.3827]
bas 21, expnt(s) = [0.1209]
bas 22, expnt(s) = [1.097]
bas 23, expnt(s) = [0.318]
bas 24, expnt(s) = [0.761]
bas 25, expnt(s) = [4.292]
bas 26, expnt(s) = [11.876]
bas 27, expnt(s) = [8.778]
bas 28, expnt(s) = [33.19]
bas 29, expnt(s) = [14.839]
CPU time:         1.08
lattice vectors  a1 [0.000000000, 4.110154026, 4.110154026]
                 a2 [4.110154026, 0.000000000, 4.110154026]
                 a3 [4.110154026, 4.110154026, 0.000000000]
dimension = 3
low_dim_ft_type = None
Cell volume = 138.869
rcut = 27.543043613549035 (nimgs = [6 6 6])
lattice sum = 1361 cells
precision = 1e-08
pseudo = None
ke_cutoff = 518236.2144944772
    = [1539 1539 1539] mesh (3645153819 PWs)


******** <class 'pyscf.pbc.scf.khf.KRHF'> ********
method = KRHF-KSCF-RHF-SCF-RHF
initial guess = minao
damping factor = 0
level_shift factor = 0
DIIS = <class 'pyscf.scf.diis.CDIIS'>
diis_start_cycle = 1
diis_space = 8
SCF conv_tol = 1e-07
SCF conv_tol_grad = None
SCF max_cycles = 50
direct_scf = True
direct_scf_tol = 1e-13
chkfile to save SCF result = data/sic_ccpcvtz_k4_C_1s_nvir_act21.chk
max_memory 700000 MB (current use 110 MB)


******** PBC SCF flags ********
N kpts = 64
kpts = [[ 0.          0.          0.        ]
 [ 0.19108728  0.19108728 -0.19108728]
 [ 0.38217456  0.38217456 -0.38217456]
 [ 0.57326185  0.57326185 -0.57326185]
 [ 0.19108728 -0.19108728  0.19108728]
 [ 0.38217456  0.          0.        ]
 [ 0.57326185  0.19108728 -0.19108728]
 [ 0.76434913  0.38217456 -0.38217456]
 [ 0.38217456 -0.38217456  0.38217456]
 [ 0.57326185 -0.19108728  0.19108728]
 [ 0.76434913  0.          0.        ]
 [ 0.95543641  0.19108728 -0.19108728]
 [ 0.57326185 -0.57326185  0.57326185]
 [ 0.76434913 -0.38217456  0.38217456]
 [ 0.95543641 -0.19108728  0.19108728]
 [ 1.14652369  0.          0.        ]
 [-0.19108728  0.19108728  0.19108728]
 [ 0.          0.38217456  0.        ]
 [ 0.19108728  0.57326185 -0.19108728]
 [ 0.38217456  0.76434913 -0.38217456]
 [ 0.          0.          0.38217456]
 [ 0.19108728  0.19108728  0.19108728]
 [ 0.38217456  0.38217456  0.        ]
 [ 0.57326185  0.57326185 -0.19108728]
 [ 0.19108728 -0.19108728  0.57326185]
 [ 0.38217456  0.          0.38217456]
 [ 0.57326185  0.19108728  0.19108728]
 [ 0.76434913  0.38217456  0.        ]
 [ 0.38217456 -0.38217456  0.76434913]
 [ 0.57326185 -0.19108728  0.57326185]
 [ 0.76434913  0.          0.38217456]
 [ 0.95543641  0.19108728  0.19108728]
 [-0.38217456  0.38217456  0.38217456]
 [-0.19108728  0.57326185  0.19108728]
 [ 0.          0.76434913  0.        ]
 [ 0.19108728  0.95543641 -0.19108728]
 [-0.19108728  0.19108728  0.57326185]
 [ 0.          0.38217456  0.38217456]
 [ 0.19108728  0.57326185  0.19108728]
 [ 0.38217456  0.76434913  0.        ]
 [ 0.          0.          0.76434913]
 [ 0.19108728  0.19108728  0.57326185]
 [ 0.38217456  0.38217456  0.38217456]
 [ 0.57326185  0.57326185  0.19108728]
 [ 0.19108728 -0.19108728  0.95543641]
 [ 0.38217456  0.          0.76434913]
 [ 0.57326185  0.19108728  0.57326185]
 [ 0.76434913  0.38217456  0.38217456]
 [-0.57326185  0.57326185  0.57326185]
 [-0.38217456  0.76434913  0.38217456]
 [-0.19108728  0.95543641  0.19108728]
 [ 0.          1.14652369  0.        ]
 [-0.38217456  0.38217456  0.76434913]
 [-0.19108728  0.57326185  0.57326185]
 [ 0.          0.76434913  0.38217456]
 [ 0.19108728  0.95543641  0.19108728]
 [-0.19108728  0.19108728  0.95543641]
 [ 0.          0.38217456  0.76434913]
 [ 0.19108728  0.57326185  0.57326185]
 [ 0.38217456  0.76434913  0.38217456]
 [ 0.          0.          1.14652369]
 [ 0.19108728  0.19108728  0.95543641]
 [ 0.38217456  0.38217456  0.76434913]
 [ 0.57326185  0.57326185  0.57326185]]
Exchange divergence treatment (exxdiv) = ewald
Monkhorst pack size [4 4 4] ew_eta 1.2952459123645264 ew_cut 5.428678483328133
Ewald components = 0, -0.730869601067801, 0.661151075018325
    madelung (= occupied orbital energy shift) = 0.13943705209895318
    Total energy shift due to Ewald probe charge = -1/2 * Nelec*madelung = -1.39437052099
DF object = <pyscf.pbc.df.df.GDF object at 0x155553f37fd0>
Set gradient conv threshold to 0.000316228
Big error detected in the electron number of initial guess density matrix (Ne/cell = 19.999)!
  This can cause huge error in Fock matrix and lead to instability in SCF for low-dimensional systems.
  DM is normalized wrt the number of electrons 20.0
    CPU time for vnuc pass1: analytic int   1130.06 sec, wall time     36.63 sec
    CPU time for contracting Vnuc [0:512]     83.65 sec, wall time      2.89 sec
    CPU time for contracting Vnuc     83.65 sec, wall time      2.89 sec
    CPU time for get_nuc   1214.12 sec, wall time     39.54 sec


******** <class 'pyscf.pbc.df.df.GDF'> ********
mesh = [9, 9, 9] (729 PWs)
auxbasis = None
eta = 0.2
exp_to_discard = None
_cderi_to_save = data/sic_ccpcvtz_k4_C_1s_nvir_act21_cderi.h5
len(kpts) = 64
    kpts = [[ 0.          0.          0.        ]
 [ 0.19108728  0.19108728 -0.19108728]
 [ 0.38217456  0.38217456 -0.38217456]
 [ 0.57326185  0.57326185 -0.57326185]
 [ 0.19108728 -0.19108728  0.19108728]
 [ 0.38217456  0.          0.        ]
 [ 0.57326185  0.19108728 -0.19108728]
 [ 0.76434913  0.38217456 -0.38217456]
 [ 0.38217456 -0.38217456  0.38217456]
 [ 0.57326185 -0.19108728  0.19108728]
 [ 0.76434913  0.          0.        ]
 [ 0.95543641  0.19108728 -0.19108728]
 [ 0.57326185 -0.57326185  0.57326185]
 [ 0.76434913 -0.38217456  0.38217456]
 [ 0.95543641 -0.19108728  0.19108728]
 [ 1.14652369  0.          0.        ]
 [-0.19108728  0.19108728  0.19108728]
 [ 0.          0.38217456  0.        ]
 [ 0.19108728  0.57326185 -0.19108728]
 [ 0.38217456  0.76434913 -0.38217456]
 [ 0.          0.          0.38217456]
 [ 0.19108728  0.19108728  0.19108728]
 [ 0.38217456  0.38217456  0.        ]
 [ 0.57326185  0.57326185 -0.19108728]
 [ 0.19108728 -0.19108728  0.57326185]
 [ 0.38217456  0.          0.38217456]
 [ 0.57326185  0.19108728  0.19108728]
 [ 0.76434913  0.38217456  0.        ]
 [ 0.38217456 -0.38217456  0.76434913]
 [ 0.57326185 -0.19108728  0.57326185]
 [ 0.76434913  0.          0.38217456]
 [ 0.95543641  0.19108728  0.19108728]
 [-0.38217456  0.38217456  0.38217456]
 [-0.19108728  0.57326185  0.19108728]
 [ 0.          0.76434913  0.        ]
 [ 0.19108728  0.95543641 -0.19108728]
 [-0.19108728  0.19108728  0.57326185]
 [ 0.          0.38217456  0.38217456]
 [ 0.19108728  0.57326185  0.19108728]
 [ 0.38217456  0.76434913  0.        ]
 [ 0.          0.          0.76434913]
 [ 0.19108728  0.19108728  0.57326185]
 [ 0.38217456  0.38217456  0.38217456]
 [ 0.57326185  0.57326185  0.19108728]
 [ 0.19108728 -0.19108728  0.95543641]
 [ 0.38217456  0.          0.76434913]
 [ 0.57326185  0.19108728  0.57326185]
 [ 0.76434913  0.38217456  0.38217456]
 [-0.57326185  0.57326185  0.57326185]
 [-0.38217456  0.76434913  0.38217456]
 [-0.19108728  0.95543641  0.19108728]
 [ 0.          1.14652369  0.        ]
 [-0.38217456  0.38217456  0.76434913]
 [-0.19108728  0.57326185  0.57326185]
 [ 0.          0.76434913  0.38217456]
 [ 0.19108728  0.95543641  0.19108728]
 [-0.19108728  0.19108728  0.95543641]
 [ 0.          0.38217456  0.76434913]
 [ 0.19108728  0.57326185  0.57326185]
 [ 0.38217456  0.76434913  0.38217456]
 [ 0.          0.          1.14652369]
 [ 0.19108728  0.19108728  0.95543641]
 [ 0.38217456  0.38217456  0.76434913]
 [ 0.57326185  0.57326185  0.57326185]]
Even tempered Gaussians are generated as DF auxbasis for  Si C
  ETB auxbasis for Si  [[0, [10412.35968, 1]], [0, [5206.17984, 1]], [0, [2603.08992, 1]], [0, [1301.54496, 1]], [0, [650.77248, 1]], [0, [325.38624, 1]], [0, [162.69312, 1]], [0, [81.34656, 1]], [0, [40.67328, 1]], [0, [20.33664, 1]], [0, [10.16832, 1]], [0, [5.08416, 1]], [0, [2.54208, 1]], [0, [1.27104, 1]], [0, [0.63552, 1]], [0, [0.31776, 1]], [0, [0.15888, 1]], [1, [2594.063068591702, 1]], [1, [1297.031534295851, 1]], [1, [648.5157671479255, 1]], [1, [324.2578835739628, 1]], [1, [162.1289417869814, 1]], [1, [81.0644708934907, 1]], [1, [40.53223544674535, 1]], [1, [20.266117723372673, 1]], [1, [10.133058861686337, 1]], [1, [5.066529430843168, 1]], [1, [2.533264715421584, 1]], [1, [1.266632357710792, 1]], [1, [0.633316178855396, 1]], [1, [0.316658089427698, 1]], [1, [0.158329044713849, 1]], [2, [646.26688, 1]], [2, [323.13344, 1]], [2, [161.56672, 1]], [2, [80.78336, 1]], [2, [40.39168, 1]], [2, [20.19584, 1]], [2, [10.09792, 1]], [2, [5.04896, 1]], [2, [2.52448, 1]], [2, [1.26224, 1]], [2, [0.63112, 1]], [2, [0.31556, 1]], [2, [0.15778, 1]], [3, [114.68575997812458, 1]], [3, [57.34287998906229, 1]], [3, [28.671439994531145, 1]], [3, [14.335719997265572, 1]], [3, [7.167859998632786, 1]], [3, [3.583929999316393, 1]], [3, [1.7919649996581966, 1]], [3, [0.8959824998290983, 1]], [3, [0.44799124991454914, 1]], [3, [0.22399562495727457, 1]], [4, [20.352, 1]], [4, [10.176, 1]], [4, [5.088, 1]], [4, [2.544, 1]], [4, [1.272, 1]], [4, [0.636, 1]], [4, [0.318, 1]]]
  ETB auxbasis for C  [[0, [2105.344, 1]], [0, [1052.672, 1]], [0, [526.336, 1]], [0, [263.168, 1]], [0, [131.584, 1]], [0, [65.792, 1]], [0, [32.896, 1]], [0, [16.448, 1]], [0, [8.224, 1]], [0, [4.112, 1]], [0, [2.056, 1]], [0, [1.028, 1]], [0, [0.514, 1]], [0, [0.257, 1]], [1, [255.26699539423424, 1]], [1, [127.63349769711712, 1]], [1, [63.81674884855856, 1]], [1, [31.90837442427928, 1]], [1, [15.95418721213964, 1]], [1, [7.97709360606982, 1]], [1, [3.98854680303491, 1]], [1, [1.994273401517455, 1]], [1, [0.9971367007587275, 1]], [1, [0.49856835037936376, 1]], [1, [0.24928417518968188, 1]], [2, [247.6032, 1]], [2, [123.8016, 1]], [2, [61.9008, 1]], [2, [30.9504, 1]], [2, [15.4752, 1]], [2, [7.7376, 1]], [2, [3.8688, 1]], [2, [1.9344, 1]], [2, [0.9672, 1]], [2, [0.4836, 1]], [2, [0.2418, 1]], [3, [25.09785928719818, 1]], [3, [12.54892964359909, 1]], [3, [6.274464821799545, 1]], [3, [3.1372324108997725, 1]], [3, [1.5686162054498862, 1]], [3, [0.7843081027249431, 1]], [3, [0.39215405136247156, 1]], [4, [20.352, 1]], [4, [10.176, 1]], [4, [5.088, 1]], [4, [2.544, 1]], [4, [1.272, 1]], [4, [0.636, 1]]]
num shells = 111, num cGTOs = 465
Drop 0 primitive fitting functions
make aux basis, num shells = 111, num cGTOs = 465
auxcell.rcut 15.157222589146311
make compensating basis, num shells = 10, num cGTOs = 50
chgcell.rcut 11.482117703874595
    CPU time for 3c2e  55200.82 sec, wall time   1955.19 sec
Num uniq kpts 172
uniq_kpts [[ 0.          0.          0.        ]
 [-0.19108728 -0.19108728  0.19108728]
 [-0.38217456 -0.38217456  0.38217456]
 [-0.57326185 -0.57326185  0.57326185]
 [-0.19108728  0.19108728 -0.19108728]
 [ 0.          0.38217456 -0.38217456]
 [ 0.19108728  0.57326185 -0.57326185]
 [ 0.38217456  0.76434913 -0.76434913]
 [-0.38217456  0.          0.        ]
 [-0.57326185 -0.19108728  0.19108728]
 [-0.76434913 -0.38217456  0.38217456]
 [-0.38217456  0.38217456 -0.38217456]
 [-0.19108728  0.57326185 -0.57326185]
 [ 0.          0.76434913 -0.76434913]
 [ 0.19108728  0.95543641 -0.95543641]
 [-0.57326185  0.19108728 -0.19108728]
 [-0.76434913  0.          0.        ]
 [-0.95543641 -0.19108728  0.19108728]
 [-0.57326185  0.57326185 -0.57326185]
 [-0.38217456  0.76434913 -0.76434913]
 [-0.19108728  0.95543641 -0.95543641]
 [ 0.          1.14652369 -1.14652369]
 [-0.76434913  0.38217456 -0.38217456]
 [-0.95543641  0.19108728 -0.19108728]
 [-1.14652369  0.          0.        ]
 [ 0.19108728 -0.19108728 -0.19108728]
 [ 0.38217456  0.         -0.38217456]
 [ 0.57326185  0.19108728 -0.57326185]
 [ 0.76434913  0.38217456 -0.76434913]
 [ 0.38217456 -0.38217456  0.        ]
 [ 0.57326185 -0.19108728 -0.19108728]
 [ 0.76434913  0.         -0.38217456]
 [ 0.95543641  0.19108728 -0.57326185]
 [ 0.57326185 -0.57326185  0.19108728]
 [ 0.76434913 -0.38217456  0.        ]
 [ 0.95543641 -0.19108728 -0.19108728]
 [ 1.14652369  0.         -0.38217456]
 [ 0.76434913 -0.76434913  0.38217456]
 [ 0.95543641 -0.57326185  0.19108728]
 [ 1.14652369 -0.38217456  0.        ]
 [ 1.33761098 -0.19108728 -0.19108728]
 [ 0.         -0.38217456  0.        ]
 [ 0.19108728 -0.57326185  0.19108728]
 [ 0.38217456 -0.76434913  0.38217456]
 [ 0.57326185 -0.95543641  0.57326185]
 [-0.19108728 -0.57326185  0.19108728]
 [ 0.         -0.76434913  0.38217456]
 [ 0.19108728 -0.95543641  0.57326185]
 [ 0.38217456 -1.14652369  0.76434913]
 [-0.38217456 -0.76434913  0.38217456]
 [-0.19108728 -0.95543641  0.57326185]
 [ 0.         -1.14652369  0.76434913]
 [ 0.19108728 -1.33761098  0.95543641]
 [ 0.          0.         -0.38217456]
 [ 0.19108728  0.19108728 -0.57326185]
 [ 0.38217456  0.38217456 -0.76434913]
 [ 0.57326185  0.57326185 -0.95543641]
 [-0.19108728 -0.19108728 -0.19108728]
 [-0.38217456 -0.38217456  0.        ]
 [-0.57326185 -0.57326185  0.19108728]
 [-0.19108728  0.19108728 -0.57326185]
 [ 0.          0.38217456 -0.76434913]
 [ 0.19108728  0.57326185 -0.95543641]
 [ 0.38217456  0.76434913 -1.14652369]
 [-0.38217456  0.         -0.38217456]
 [-0.57326185 -0.19108728 -0.19108728]
 [-0.76434913 -0.38217456  0.        ]
 [-0.38217456  0.38217456 -0.76434913]
 [-0.19108728  0.57326185 -0.95543641]
 [ 0.          0.76434913 -1.14652369]
 [ 0.19108728  0.95543641 -1.33761098]
 [-0.57326185  0.19108728 -0.57326185]
 [-0.76434913  0.         -0.38217456]
 [-0.95543641 -0.19108728 -0.19108728]
 [ 0.38217456 -0.38217456 -0.38217456]
 [ 0.57326185 -0.19108728 -0.57326185]
 [ 0.76434913  0.         -0.76434913]
 [ 0.95543641  0.19108728 -0.95543641]
 [ 0.57326185 -0.57326185 -0.19108728]
 [ 0.76434913 -0.38217456 -0.38217456]
 [ 0.95543641 -0.19108728 -0.57326185]
 [ 1.14652369  0.         -0.76434913]
 [ 0.76434913 -0.76434913  0.        ]
 [ 0.95543641 -0.57326185 -0.19108728]
 [ 1.14652369 -0.38217456 -0.38217456]
 [ 1.33761098 -0.19108728 -0.57326185]
 [ 0.95543641 -0.95543641  0.19108728]
 [ 1.14652369 -0.76434913  0.        ]
 [ 1.33761098 -0.57326185 -0.19108728]
 [ 1.52869826 -0.38217456 -0.38217456]
 [ 0.19108728 -0.57326185 -0.19108728]
 [ 0.38217456 -0.76434913  0.        ]
 [ 0.57326185 -0.95543641  0.19108728]
 [ 0.76434913 -1.14652369  0.38217456]
 [ 0.         -0.76434913  0.        ]
 [ 0.19108728 -0.95543641  0.19108728]
 [ 0.38217456 -1.14652369  0.38217456]
 [ 0.57326185 -1.33761098  0.57326185]
 [-0.19108728 -0.95543641  0.19108728]
 [ 0.         -1.14652369  0.38217456]
 [ 0.19108728 -1.33761098  0.57326185]
 [ 0.38217456 -1.52869826  0.76434913]
 [ 0.19108728 -0.19108728 -0.57326185]
 [ 0.38217456  0.         -0.76434913]
 [ 0.57326185  0.19108728 -0.95543641]
 [ 0.76434913  0.38217456 -1.14652369]
 [ 0.         -0.38217456 -0.38217456]
 [-0.19108728 -0.57326185 -0.19108728]
 [-0.38217456 -0.76434913  0.        ]
 [ 0.          0.         -0.76434913]
 [ 0.19108728  0.19108728 -0.95543641]
 [ 0.38217456  0.38217456 -1.14652369]
 [ 0.57326185  0.57326185 -1.33761098]
 [-0.19108728 -0.19108728 -0.57326185]
 [-0.38217456 -0.38217456 -0.38217456]
 [-0.57326185 -0.57326185 -0.19108728]
 [-0.19108728  0.19108728 -0.95543641]
 [ 0.          0.38217456 -1.14652369]
 [ 0.19108728  0.57326185 -1.33761098]
 [ 0.38217456  0.76434913 -1.52869826]
 [-0.38217456  0.         -0.76434913]
 [-0.57326185 -0.19108728 -0.57326185]
 [-0.76434913 -0.38217456 -0.38217456]
 [ 0.57326185 -0.57326185 -0.57326185]
 [ 0.76434913 -0.38217456 -0.76434913]
 [ 0.95543641 -0.19108728 -0.95543641]
 [ 1.14652369  0.         -1.14652369]
 [ 0.76434913 -0.76434913 -0.38217456]
 [ 0.95543641 -0.57326185 -0.57326185]
 [ 1.14652369 -0.38217456 -0.76434913]
 [ 1.33761098 -0.19108728 -0.95543641]
 [ 0.95543641 -0.95543641 -0.19108728]
 [ 1.14652369 -0.76434913 -0.38217456]
 [ 1.33761098 -0.57326185 -0.57326185]
 [ 1.52869826 -0.38217456 -0.76434913]
 [ 1.14652369 -1.14652369  0.        ]
 [ 1.33761098 -0.95543641 -0.19108728]
 [ 1.52869826 -0.76434913 -0.38217456]
 [ 1.71978554 -0.57326185 -0.57326185]
 [ 0.38217456 -0.76434913 -0.38217456]
 [ 0.57326185 -0.95543641 -0.19108728]
 [ 0.76434913 -1.14652369  0.        ]
 [ 0.95543641 -1.33761098  0.19108728]
 [ 0.19108728 -0.95543641 -0.19108728]
 [ 0.38217456 -1.14652369  0.        ]
 [ 0.57326185 -1.33761098  0.19108728]
 [ 0.76434913 -1.52869826  0.38217456]
 [ 0.         -1.14652369  0.        ]
 [ 0.19108728 -1.33761098  0.19108728]
 [ 0.38217456 -1.52869826  0.38217456]
 [ 0.57326185 -1.71978554  0.57326185]
 [ 0.38217456 -0.38217456 -0.76434913]
 [ 0.57326185 -0.19108728 -0.95543641]
 [ 0.76434913  0.         -1.14652369]
 [ 0.95543641  0.19108728 -1.33761098]
 [ 0.19108728 -0.57326185 -0.57326185]
 [ 0.         -0.76434913 -0.38217456]
 [-0.19108728 -0.95543641 -0.19108728]
 [ 0.19108728 -0.19108728 -0.95543641]
 [ 0.38217456  0.         -1.14652369]
 [ 0.57326185  0.19108728 -1.33761098]
 [ 0.76434913  0.38217456 -1.52869826]
 [ 0.         -0.38217456 -0.76434913]
 [-0.19108728 -0.57326185 -0.57326185]
 [-0.38217456 -0.76434913 -0.38217456]
 [ 0.          0.         -1.14652369]
 [ 0.19108728  0.19108728 -1.33761098]
 [ 0.38217456  0.38217456 -1.52869826]
 [ 0.57326185  0.57326185 -1.71978554]
 [-0.19108728 -0.19108728 -0.95543641]
 [-0.38217456 -0.38217456 -0.76434913]
 [-0.57326185 -0.57326185 -0.57326185]]
max_memory 698985.37984 (MB)  blocksize 33931329
Cholesky decomposition for j2c at kpt 0
Symmetry pattern (k - [0. 0. 0.])*a= 2n pi
    make_kpt for uniq_kptji_ids [0]
kpt = [0. 0. 0.]
adapted_ji_idx = [   0    2    5    9   14   20   27   35   44   54   65   77   90  104
  119  135  152  170  189  209  230  252  275  299  324  350  377  405
  434  464  495  527  560  594  629  665  702  740  779  819  860  902
  945  989 1034 1080 1127 1175 1224 1274 1325 1377 1430 1484 1539 1595
 1652 1710 1769 1829 1890 1952 2015 2079]
memory = 320.004096
int3c2e [1/1], AO [0:30], ncol = 5253
Symmetry pattern (k + [0. 0. 0.])*a= 2n pi
    make_kpt for [0]
Cholesky decomposition for j2c at kpt 1
Symmetry pattern (k - [-0.19108728 -0.19108728  0.19108728])*a= 2n pi
    make_kpt for uniq_kptji_ids [1]
kpt = [-0.19108728 -0.19108728  0.19108728]
adapted_ji_idx = [   1    4    8   19   26   34   53   64   76  103  118  134  169  188
  208  251  274  298  349  376  404  463  494  526  593  628  664  739
  778  818  901  944  988 1079 1126 1174 1273 1324 1376 1483 1538 1594
 1709 1768 1828 1951 2014 2078]
memory = 2938.277888
int3c2e [1/1], AO [0:30], ncol = 10404
Symmetry pattern (k + [-0.19108728 -0.19108728  0.19108728])*a= 2n pi
    make_kpt for [3]
kpt = [-0.57326185 -0.57326185  0.57326185]
adapted_ji_idx = [   6   32   74  132  206  296  402  524  662  816  986 1172 1374 1592
 1826 2076]
memory = 2941.755392
int3c2e [1/1], AO [0:30], ncol = 10404
Cholesky decomposition for j2c at kpt 2
Symmetry pattern (k - [-0.38217456 -0.38217456  0.38217456])*a= 2n pi
    make_kpt for uniq_kptji_ids [2]
kpt = [-0.38217456 -0.38217456  0.38217456]
adapted_ji_idx = [   3    7   25   33   63   75  117  133  187  207  273  297  375  403
  493  525  627  663  777  817  943  987 1125 1173 1323 1375 1537 1593
 1767 1827 2013 2077]
memory = 3549.06112
int3c2e [1/1], AO [0:30], ncol = 10404
Symmetry pattern (k + [-0.38217456 -0.38217456  0.38217456])*a= 2n pi
    make_kpt for [2]
Cholesky decomposition for j2c at kpt 4
Symmetry pattern (k - [-0.19108728  0.19108728 -0.19108728])*a= 2n pi
    make_kpt for uniq_kptji_ids [4]
kpt = [-0.19108728  0.19108728 -0.19108728]
adapted_ji_idx = [  10   16   23   31   40   50   61   73   86  100  115  131  226  248
  271  295  320  346  373  401  430  460  491  523  698  736  775  815
  856  898  941  985 1030 1076 1123 1171 1426 1480 1535 1591 1648 1706
 1765 1825 1886 1948 2011 2075]
memory = 3687.886848
int3c2e [1/1], AO [0:30], ncol = 10404
Symmetry pattern (k + [-0.19108728  0.19108728 -0.19108728])*a= 2n pi
    make_kpt for [18]
kpt = [-0.57326185  0.57326185 -0.57326185]
adapted_ji_idx = [  78   92  107  123  422  452  483  515 1022 1068 1115 1163 1878 1940
 2003 2067]
memory = 3795.18976
int3c2e [1/1], AO [0:30], ncol = 10404
Cholesky decomposition for j2c at kpt 5
Symmetry pattern (k - [ 0.          0.38217456 -0.38217456])*a= 2n pi
    make_kpt for uniq_kptji_ids [ 5 10]
kpt = [ 0.          0.38217456 -0.38217456]
adapted_ji_idx = [  11   17   24   41   51   62   87  101  116  227  249  272  321  347
  374  431  461  492  699  737  776  857  899  942 1031 1077 1124 1427
 1481 1536 1649 1707 1766 1887 1949 2012]
memory = 3809.390592
int3c2e [1/1], AO [0:30], ncol = 10404
kpt = [-0.76434913 -0.38217456  0.38217456]
adapted_ji_idx = [  28   70  128  292  398  520  812  982 1168 1588 1822 2072]
memory = 3873.222656
int3c2e [1/1], AO [0:30], ncol = 10404
Symmetry pattern (k + [ 0.          0.38217456 -0.38217456])*a= 2n pi
    make_kpt for [21 22]
kpt = [ 0.          1.14652369 -1.14652369]
adapted_ji_idx = [  81  425 1025 1881]
memory = 3875.913728
int3c2e [1/1], AO [0:30], ncol = 10404
kpt = [-0.76434913  0.38217456 -0.38217456]
adapted_ji_idx = [  91  106  122  451  482  514 1067 1114 1162 1939 2002 2066]
memory = 3875.6352
int3c2e [1/1], AO [0:30], ncol = 10404
Cholesky decomposition for j2c at kpt 6
Symmetry pattern (k - [ 0.19108728  0.57326185 -0.57326185])*a= 2n pi
    make_kpt for uniq_kptji_ids [6 9]
kpt = [ 0.19108728  0.57326185 -0.57326185]
adapted_ji_idx = [  12   18   42   52   88  102  228  250  322  348  432  462  700  738
  858  900 1032 1078 1428 1482 1650 1708 1888 1950]
memory = 3875.954688
int3c2e [1/1], AO [0:30], ncol = 10404
kpt = [-0.57326185 -0.19108728  0.19108728]
adapted_ji_idx = [  21   29   59   71  113  129  269  293  371  399  489  521  773  813
  939  983 1121 1169 1533 1589 1763 1823 2009 2073]
memory = 3891.810304
int3c2e [1/1], AO [0:30], ncol = 10404
Symmetry pattern (k + [ 0.19108728  0.57326185 -0.57326185])*a= 2n pi
    make_kpt for [20 23]
kpt = [-0.19108728  0.95543641 -0.95543641]
adapted_ji_idx = [  80   94  424  454 1024 1070 1880 1942]
memory = 3896.123392
int3c2e [1/1], AO [0:30], ncol = 10404
kpt = [-0.95543641  0.19108728 -0.19108728]
adapted_ji_idx = [ 105  121  481  513 1113 1161 2001 2065]
memory = 3895.93088
int3c2e [1/1], AO [0:30], ncol = 10404
Cholesky decomposition for j2c at kpt 7
Symmetry pattern (k - [ 0.38217456  0.76434913 -0.76434913])*a= 2n pi
    make_kpt for uniq_kptji_ids [7 8]
kpt = [ 0.38217456  0.76434913 -0.76434913]
adapted_ji_idx = [  13   43   89  229  323  433  701  859 1033 1429 1651 1889]
memory = 3895.271424
int3c2e [1/1], AO [0:30], ncol = 10404
kpt = [-0.38217456  0.          0.        ]
adapted_ji_idx = [  15   22   30   49   60   72   99  114  130  247  270  294  345  372
  400  459  490  522  735  774  814  897  940  984 1075 1122 1170 1479
 1534 1590 1705 1764 1824 1947 2010 2074]
memory = 3895.857152
int3c2e [1/1], AO [0:30], ncol = 10404
Symmetry pattern (k + [ 0.38217456  0.76434913 -0.76434913])*a= 2n pi
    make_kpt for [19 24]
kpt = [-0.38217456  0.76434913 -0.76434913]
adapted_ji_idx = [  79   93  108  423  453  484 1023 1069 1116 1879 1941 2004]
memory = 3898.585088
int3c2e [1/1], AO [0:30], ncol = 10404
kpt = [-1.14652369  0.          0.        ]
adapted_ji_idx = [ 120  512 1160 2064]
memory = 3898.355712
int3c2e [1/1], AO [0:30], ncol = 10404
Cholesky decomposition for j2c at kpt 11
Symmetry pattern (k - [-0.38217456  0.38217456 -0.38217456])*a= 2n pi
    make_kpt for uniq_kptji_ids [11]
kpt = [-0.38217456  0.38217456 -0.38217456]
adapted_ji_idx = [  36   46   57   69   82   96  111  127  316  342  369  397  426  456
  487  519  852  894  937  981 1026 1072 1119 1167 1644 1702 1761 1821
 1882 1944 2007 2071]
memory = 3897.516032
int3c2e [1/1], AO [0:30], ncol = 10404
Symmetry pattern (k + [-0.38217456  0.38217456 -0.38217456])*a= 2n pi
    make_kpt for [11]
Cholesky decomposition for j2c at kpt 12
Symmetry pattern (k - [-0.19108728  0.57326185 -0.57326185])*a= 2n pi
    make_kpt for uniq_kptji_ids [12 17]
kpt = [-0.19108728  0.57326185 -0.57326185]
adapted_ji_idx = [  37   47   58   83   97  112  317  343  370  427  457  488  853  895
  938 1027 1073 1120 1645 1703 1762 1883 1945 2008]
memory = 3901.001728
int3c2e [1/1], AO [0:30], ncol = 10404
kpt = [-0.95543641 -0.19108728  0.19108728]
adapted_ji_idx = [  66  124  394  516  978 1164 1818 2068]
memory = 3902.066688
int3c2e [1/1], AO [0:30], ncol = 10404
Symmetry pattern (k + [-0.19108728  0.57326185 -0.57326185])*a= 2n pi
    make_kpt for [14 15]
kpt = [ 0.19108728  0.95543641 -0.95543641]
adapted_ji_idx = [  39   85  319  429  855 1029 1647 1885]
memory = 3901.313024
int3c2e [1/1], AO [0:30], ncol = 10404
kpt = [-0.57326185  0.19108728 -0.19108728]
adapted_ji_idx = [  45   56   68   95  110  126  341  368  396  455  486  518  893  936
  980 1071 1118 1166 1701 1760 1820 1943 2006 2070]
memory = 3900.571648
int3c2e [1/1], AO [0:30], ncol = 10404
Cholesky decomposition for j2c at kpt 13
Symmetry pattern (k - [ 0.          0.76434913 -0.76434913])*a= 2n pi
    make_kpt for uniq_kptji_ids [13 16]
kpt = [ 0.          0.76434913 -0.76434913]
adapted_ji_idx = [  38   48   84   98  318  344  428  458  854  896 1028 1074 1646 1704
 1884 1946]
memory = 3902.099456
int3c2e [1/1], AO [0:30], ncol = 10404
kpt = [-0.76434913  0.          0.        ]
adapted_ji_idx = [  55   67  109  125  367  395  485  517  935  979 1117 1165 1759 1819
 2005 2069]
memory = 3903.156224
int3c2e [1/1], AO [0:30], ncol = 10404
Symmetry pattern (k + [ 0.          0.76434913 -0.76434913])*a= 2n pi
    make_kpt for [13 16]
Cholesky decomposition for j2c at kpt 25
Symmetry pattern (k - [ 0.19108728 -0.19108728 -0.19108728])*a= 2n pi
    make_kpt for uniq_kptji_ids [25]
kpt = [ 0.19108728 -0.19108728 -0.19108728]
adapted_ji_idx = [ 136  154  173  193  214  236  259  283  308  334  361  389  418  448
  479  511  544  578  613  649  686  724  763  803  844  886  929  973
 1018 1064 1111 1159 1208 1258 1309 1361 1414 1468 1523 1579 1636 1694
 1753 1813 1874 1936 1999 2063]
memory = 3902.775296
int3c2e [1/1], AO [0:30], ncol = 10404
Symmetry pattern (k + [ 0.19108728 -0.19108728 -0.19108728])*a= 2n pi
    make_kpt for [123]
kpt = [ 0.57326185 -0.57326185 -0.57326185]
adapted_ji_idx = [1176 1226 1277 1329 1382 1436 1491 1547 1604 1662 1721 1781 1842 1904
 1967 2031]
memory = 3919.91296
int3c2e [1/1], AO [0:30], ncol = 10404
Cholesky decomposition for j2c at kpt 26
Symmetry pattern (k - [ 0.38217456  0.         -0.38217456])*a= 2n pi
    make_kpt for uniq_kptji_ids [26 49]
kpt = [ 0.38217456  0.         -0.38217456]
adapted_ji_idx = [ 137  155  174  215  237  260  309  335  362  419  449  480  545  579
  614  687  725  764  845  887  930 1019 1065 1112 1209 1259 1310 1415
 1469 1524 1637 1695 1754 1875 1937 2000]
memory = 3921.28512
int3c2e [1/1], AO [0:30], ncol = 10404
kpt = [-0.38217456 -0.76434913  0.38217456]
adapted_ji_idx = [ 190  280  386  508  646  800  970 1156 1358 1576 1810 2060]
memory = 3924.946944
int3c2e [1/1], AO [0:30], ncol = 10404
Symmetry pattern (k + [ 0.38217456  0.         -0.38217456])*a= 2n pi
    make_kpt for [126 139]
kpt = [ 1.14652369  0.         -1.14652369]
adapted_ji_idx = [1179 1385 1607 1845]
memory = 3924.754432
int3c2e [1/1], AO [0:30], ncol = 10404
kpt = [ 0.38217456 -0.76434913 -0.38217456]
adapted_ji_idx = [1225 1276 1328 1435 1490 1546 1661 1720 1780 1903 1966 2030]
memory = 3924.025344
int3c2e [1/1], AO [0:30], ncol = 10404
Cholesky decomposition for j2c at kpt 27
Symmetry pattern (k - [ 0.57326185  0.19108728 -0.57326185])*a= 2n pi
    make_kpt for uniq_kptji_ids [27 45]
kpt = [ 0.57326185  0.19108728 -0.57326185]
adapted_ji_idx = [ 138  156  216  238  310  336  420  450  546  580  688  726  846  888
 1020 1066 1210 1260 1416 1470 1638 1696 1876 1938]
memory = 3924.201472
int3c2e [1/1], AO [0:30], ncol = 10404
kpt = [-0.19108728 -0.57326185  0.19108728]
adapted_ji_idx = [ 171  191  257  281  359  387  477  509  611  647  761  801  927  971
 1109 1157 1307 1359 1521 1577 1751 1811 1997 2061]
memory = 3924.578304
int3c2e [1/1], AO [0:30], ncol = 10404
Symmetry pattern (k + [ 0.57326185  0.19108728 -0.57326185])*a= 2n pi
    make_kpt for [125 143]
kpt = [ 0.95543641 -0.19108728 -0.95543641]
adapted_ji_idx = [1178 1228 1384 1438 1606 1664 1844 1906]
memory = 3924.95104
int3c2e [1/1], AO [0:30], ncol = 10404
kpt = [ 0.19108728 -0.95543641 -0.19108728]
adapted_ji_idx = [1275 1327 1489 1545 1719 1779 1965 2029]
memory = 3924.91008
int3c2e [1/1], AO [0:30], ncol = 10404
Cholesky decomposition for j2c at kpt 28
Symmetry pattern (k - [ 0.76434913  0.38217456 -0.76434913])*a= 2n pi
    make_kpt for uniq_kptji_ids [28 41]
kpt = [ 0.76434913  0.38217456 -0.76434913]
adapted_ji_idx = [ 139  217  311  421  547  689  847 1021 1211 1417 1639 1877]
memory = 3924.496384
int3c2e [1/1], AO [0:30], ncol = 10404
kpt = [ 0.         -0.38217456  0.        ]
adapted_ji_idx = [ 153  172  192  235  258  282  333  360  388  447  478  510  577  612
  648  723  762  802  885  928  972 1063 1110 1158 1257 1308 1360 1467
 1522 1578 1693 1752 1812 1935 1998 2062]
memory = 3924.574208
int3c2e [1/1], AO [0:30], ncol = 10404
Symmetry pattern (k + [ 0.76434913  0.38217456 -0.76434913])*a= 2n pi
    make_kpt for [124 147]
kpt = [ 0.76434913 -0.38217456 -0.76434913]
adapted_ji_idx = [1177 1227 1278 1383 1437 1492 1605 1663 1722 1843 1905 1968]
memory = 3927.494656
int3c2e [1/1], AO [0:30], ncol = 10404
kpt = [ 0.         -1.14652369  0.        ]
adapted_ji_idx = [1326 1544 1778 2028]
memory = 3927.109632
int3c2e [1/1], AO [0:30], ncol = 10404
Cholesky decomposition for j2c at kpt 29
Symmetry pattern (k - [ 0.38217456 -0.38217456  0.        ])*a= 2n pi
    make_kpt for uniq_kptji_ids [29 67]
kpt = [ 0.38217456 -0.38217456  0.        ]
adapted_ji_idx = [ 140  158  177  197  218  240  263  287  312  338  365  393  548  582
  617  653  690  728  767  807  848  890  933  977 1212 1262 1313 1365
 1418 1472 1527 1583 1640 1698 1757 1817]
memory = 3926.36416
int3c2e [1/1], AO [0:30], ncol = 10404
kpt = [-0.38217456  0.38217456 -0.76434913]
adapted_ji_idx = [ 406  436  467  499 1006 1052 1099 1147 1862 1924 1987 2051]
memory = 3927.130112
int3c2e [1/1], AO [0:30], ncol = 10404
Symmetry pattern (k + [ 0.38217456 -0.38217456  0.        ])*a= 2n pi
    make_kpt for [135 151]
kpt = [ 1.14652369 -1.14652369  0.        ]
adapted_ji_idx = [1188 1238 1289 1341]
memory = 3926.85568
int3c2e [1/1], AO [0:30], ncol = 10404
kpt = [ 0.38217456 -0.38217456 -0.76434913]
adapted_ji_idx = [1378 1432 1487 1543 1600 1658 1717 1777 1838 1900 1963 2027]
memory = 3926.36416
int3c2e [1/1], AO [0:30], ncol = 10404
Cholesky decomposition for j2c at kpt 30
Symmetry pattern (k - [ 0.57326185 -0.19108728 -0.19108728])*a= 2n pi
    make_kpt for uniq_kptji_ids [30 50 68 73]
kpt = [ 0.57326185 -0.19108728 -0.19108728]
adapted_ji_idx = [ 141  159  178  219  241  264  313  339  366  549  583  618  691  729
  768  849  891  934 1213 1263 1314 1419 1473 1528 1641 1699 1758]
memory = 3927.539712
int3c2e [1/1], AO [0:30], ncol = 10404
kpt = [-0.19108728 -0.95543641  0.57326185]
adapted_ji_idx = [ 194  284  390  650  804  974 1362 1580 1814]
memory = 3930.09152
int3c2e [1/1], AO [0:30], ncol = 10404
kpt = [-0.19108728  0.57326185 -0.95543641]
adapted_ji_idx = [ 407  437  468 1007 1053 1100 1863 1925 1988]
memory = 3929.038848
int3c2e [1/1], AO [0:30], ncol = 10404
kpt = [-0.95543641 -0.19108728 -0.19108728]
adapted_ji_idx = [ 496 1144 2048]
memory = 3929.489408
int3c2e [1/1], AO [0:30], ncol = 10404
Symmetry pattern (k + [ 0.57326185 -0.19108728 -0.19108728])*a= 2n pi
    make_kpt for [138 142 154 155]
kpt = [ 1.71978554 -0.57326185 -0.57326185]
adapted_ji_idx = [1191]
memory = 3929.468928
int3c2e [1/1], AO [0:30], ncol = 10404
kpt = [ 0.95543641 -1.33761098  0.19108728]
adapted_ji_idx = [1237 1288 1340]
memory = 3929.075712
int3c2e [1/1], AO [0:30], ncol = 10404
kpt = [ 0.95543641  0.19108728 -1.33761098]
adapted_ji_idx = [1381 1603 1841]
memory = 3928.948736
int3c2e [1/1], AO [0:30], ncol = 10404
kpt = [ 0.19108728 -0.57326185 -0.57326185]
adapted_ji_idx = [1431 1486 1542 1657 1716 1776 1899 1962 2026]
memory = 3928.928256
int3c2e [1/1], AO [0:30], ncol = 10404
Cholesky decomposition for j2c at kpt 31
Symmetry pattern (k - [ 0.76434913  0.         -0.38217456])*a= 2n pi
    make_kpt for uniq_kptji_ids [31 46 69 72]
kpt = [ 0.76434913  0.         -0.38217456]
adapted_ji_idx = [ 142  160  220  242  314  340  550  584  692  730  850  892 1214 1264
 1420 1474 1642 1700]
memory = 3929.202688
int3c2e [1/1], AO [0:30], ncol = 10404
kpt = [ 0.         -0.76434913  0.38217456]
adapted_ji_idx = [ 175  195  261  285  363  391  615  651  765  805  931  975 1311 1363
 1525 1581 1755 1815]
memory = 3929.833472
int3c2e [1/1], AO [0:30], ncol = 10404
kpt = [ 0.          0.76434913 -1.14652369]
adapted_ji_idx = [ 408  438 1008 1054 1864 1926]
memory = 3929.419776
int3c2e [1/1], AO [0:30], ncol = 10404
kpt = [-0.76434913  0.         -0.38217456]
adapted_ji_idx = [ 465  497 1097 1145 1985 2049]
memory = 3929.255936
int3c2e [1/1], AO [0:30], ncol = 10404
Symmetry pattern (k + [ 0.76434913  0.         -0.38217456])*a= 2n pi
    make_kpt for [137 146 153 156]
kpt = [ 1.52869826 -0.76434913 -0.38217456]
adapted_ji_idx = [1190 1240]
memory = 3929.14944
int3c2e [1/1], AO [0:30], ncol = 10404
kpt = [ 0.76434913 -1.52869826  0.38217456]
adapted_ji_idx = [1287 1339]
memory = 3928.260608
int3c2e [1/1], AO [0:30], ncol = 10404
kpt = [ 0.76434913  0.         -1.14652369]
adapted_ji_idx = [1380 1434 1602 1660 1840 1902]
memory = 3927.568384
int3c2e [1/1], AO [0:30], ncol = 10404
kpt = [ 0.         -0.76434913 -0.38217456]
adapted_ji_idx = [1485 1541 1715 1775 1961 2025]
memory = 3928.43264
int3c2e [1/1], AO [0:30], ncol = 10404
Cholesky decomposition for j2c at kpt 32
Symmetry pattern (k - [ 0.95543641  0.19108728 -0.57326185])*a= 2n pi
    make_kpt for uniq_kptji_ids [32 42 70 71]
kpt = [ 0.95543641  0.19108728 -0.57326185]
adapted_ji_idx = [ 143  221  315  551  693  851 1215 1421 1643]
memory = 3928.666112
int3c2e [1/1], AO [0:30], ncol = 10404
kpt = [ 0.19108728 -0.57326185  0.19108728]
adapted_ji_idx = [ 157  176  196  239  262  286  337  364  392  581  616  652  727  766
  806  889  932  976 1261 1312 1364 1471 1526 1582 1697 1756 1816]
memory = 3928.580096
int3c2e [1/1], AO [0:30], ncol = 10404
kpt = [ 0.19108728  0.95543641 -1.33761098]
adapted_ji_idx = [ 409 1009 1865]
memory = 3929.78432
int3c2e [1/1], AO [0:30], ncol = 10404
kpt = [-0.57326185  0.19108728 -0.57326185]
adapted_ji_idx = [ 435  466  498 1051 1098 1146 1923 1986 2050]
memory = 3928.84224
int3c2e [1/1], AO [0:30], ncol = 10404
Symmetry pattern (k + [ 0.95543641  0.19108728 -0.57326185])*a= 2n pi
    make_kpt for [136 150 152 157]
kpt = [ 1.33761098 -0.95543641 -0.19108728]
adapted_ji_idx = [1189 1239 1290]
memory = 3928.768512
int3c2e [1/1], AO [0:30], ncol = 10404
kpt = [ 0.57326185 -1.71978554  0.57326185]
adapted_ji_idx = [1338]
memory = 3927.945216
int3c2e [1/1], AO [0:30], ncol = 10404
kpt = [ 0.57326185 -0.19108728 -0.95543641]
adapted_ji_idx = [1379 1433 1488 1601 1659 1718 1839 1901 1964]
memory = 3927.699456
int3c2e [1/1], AO [0:30], ncol = 10404
kpt = [-0.19108728 -0.95543641 -0.19108728]
adapted_ji_idx = [1540 1774 2024]
memory = 3928.064
int3c2e [1/1], AO [0:30], ncol = 10404
Cholesky decomposition for j2c at kpt 33
Symmetry pattern (k - [ 0.57326185 -0.57326185  0.19108728])*a= 2n pi
    make_kpt for uniq_kptji_ids [33 60]
kpt = [ 0.57326185 -0.57326185  0.19108728]
adapted_ji_idx = [ 144  162  181  201  222  244  267  291  552  586  621  657  694  732
  771  811 1216 1266 1317 1369 1422 1476 1531 1587]
memory = 3928.092672
int3c2e [1/1], AO [0:30], ncol = 10404
kpt = [-0.19108728  0.19108728 -0.57326185]
adapted_ji_idx = [ 300  326  353  381  410  440  471  503  836  878  921  965 1010 1056
 1103 1151 1628 1686 1745 1805 1866 1928 1991 2055]
memory = 3929.419776
int3c2e [1/1], AO [0:30], ncol = 10404
Symmetry pattern (k + [ 0.57326185 -0.57326185  0.19108728])*a= 2n pi
    make_kpt for [131 158]
kpt = [ 0.95543641 -0.95543641 -0.19108728]
adapted_ji_idx = [1184 1234 1285 1337 1390 1444 1499 1555]
memory = 3929.427968
int3c2e [1/1], AO [0:30], ncol = 10404
kpt = [ 0.19108728 -0.19108728 -0.95543641]
adapted_ji_idx = [1596 1654 1713 1773 1834 1896 1959 2023]
memory = 3928.576
int3c2e [1/1], AO [0:30], ncol = 10404
Cholesky decomposition for j2c at kpt 34
Symmetry pattern (k - [ 0.76434913 -0.38217456  0.        ])*a= 2n pi
    make_kpt for uniq_kptji_ids [34 51 61 66]
kpt = [ 0.76434913 -0.38217456  0.        ]
adapted_ji_idx = [ 145  163  182  223  245  268  553  587  622  695  733  772 1217 1267
 1318 1423 1477 1532]
memory = 3929.133056
int3c2e [1/1], AO [0:30], ncol = 10404
kpt = [ 0.         -1.14652369  0.76434913]
adapted_ji_idx = [ 198  288  654  808 1366 1584]
memory = 3929.772032
int3c2e [1/1], AO [0:30], ncol = 10404
kpt = [ 0.          0.38217456 -0.76434913]
adapted_ji_idx = [ 301  327  354  411  441  472  837  879  922 1011 1057 1104 1629 1687
 1746 1867 1929 1992]
memory = 3929.657344
int3c2e [1/1], AO [0:30], ncol = 10404
kpt = [-0.76434913 -0.38217456  0.        ]
adapted_ji_idx = [ 378  500  962 1148 1802 2052]
memory = 3930.144768
int3c2e [1/1], AO [0:30], ncol = 10404
Symmetry pattern (k + [ 0.76434913 -0.38217456  0.        ])*a= 2n pi
    make_kpt for [134 141 161 162]
kpt = [ 1.52869826 -0.38217456 -0.76434913]
adapted_ji_idx = [1187 1393]
memory = 3929.82528
int3c2e [1/1], AO [0:30], ncol = 10404
kpt = [ 0.76434913 -1.14652369  0.        ]
adapted_ji_idx = [1233 1284 1336 1443 1498 1554]
memory = 3928.764416
int3c2e [1/1], AO [0:30], ncol = 10404
kpt = [ 0.76434913  0.38217456 -1.52869826]
adapted_ji_idx = [1599 1837]
memory = 3928.63744
int3c2e [1/1], AO [0:30], ncol = 10404
kpt = [ 0.         -0.38217456 -0.76434913]
adapted_ji_idx = [1653 1712 1772 1895 1958 2022]
memory = 3927.949312
int3c2e [1/1], AO [0:30], ncol = 10404
Cholesky decomposition for j2c at kpt 35
Symmetry pattern (k - [ 0.95543641 -0.19108728 -0.19108728])*a= 2n pi
    make_kpt for uniq_kptji_ids [35 47 62 65]
kpt = [ 0.95543641 -0.19108728 -0.19108728]
adapted_ji_idx = [ 146  164  224  246  554  588  696  734 1218 1268 1424 1478]
memory = 3928.936448
int3c2e [1/1], AO [0:30], ncol = 10404
kpt = [ 0.19108728 -0.95543641  0.57326185]
adapted_ji_idx = [ 179  199  265  289  619  655  769  809 1315 1367 1529 1585]
memory = 3929.37472
int3c2e [1/1], AO [0:30], ncol = 10404
kpt = [ 0.19108728  0.57326185 -0.95543641]
adapted_ji_idx = [ 302  328  412  442  838  880 1012 1058 1630 1688 1868 1930]
memory = 3929.460736
int3c2e [1/1], AO [0:30], ncol = 10404
kpt = [-0.57326185 -0.19108728 -0.19108728]
adapted_ji_idx = [ 351  379  469  501  919  963 1101 1149 1743 1803 1989 2053]
memory = 3929.64096
int3c2e [1/1], AO [0:30], ncol = 10404
Symmetry pattern (k + [ 0.95543641 -0.19108728 -0.19108728])*a= 2n pi
    make_kpt for [133 145 160 163]
kpt = [ 1.33761098 -0.57326185 -0.57326185]
adapted_ji_idx = [1186 1236 1392 1446]
memory = 3929.88672
int3c2e [1/1], AO [0:30], ncol = 10404
kpt = [ 0.57326185 -1.33761098  0.19108728]
adapted_ji_idx = [1283 1335 1497 1553]
memory = 3929.022464
int3c2e [1/1], AO [0:30], ncol = 10404
kpt = [ 0.57326185  0.19108728 -1.33761098]
adapted_ji_idx = [1598 1656 1836 1898]
memory = 3928.7808
int3c2e [1/1], AO [0:30], ncol = 10404
kpt = [-0.19108728 -0.57326185 -0.57326185]
adapted_ji_idx = [1711 1771 1957 2021]
memory = 3928.936448
int3c2e [1/1], AO [0:30], ncol = 10404
Cholesky decomposition for j2c at kpt 36
Symmetry pattern (k - [ 1.14652369  0.         -0.38217456])*a= 2n pi
    make_kpt for uniq_kptji_ids [36 43 63 64]
kpt = [ 1.14652369  0.         -0.38217456]
adapted_ji_idx = [ 147  225  555  697 1219 1425]
memory = 3928.80128
int3c2e [1/1], AO [0:30], ncol = 10404
kpt = [ 0.38217456 -0.76434913  0.38217456]
adapted_ji_idx = [ 161  180  200  243  266  290  585  620  656  731  770  810 1265 1316
 1368 1475 1530 1586]
memory = 3928.887296
int3c2e [1/1], AO [0:30], ncol = 10404
kpt = [ 0.38217456  0.76434913 -1.14652369]
adapted_ji_idx = [ 303  413  839 1013 1631 1869]
memory = 3929.833472
int3c2e [1/1], AO [0:30], ncol = 10404
kpt = [-0.38217456  0.         -0.38217456]
adapted_ji_idx = [ 325  352  380  439  470  502  877  920  964 1055 1102 1150 1685 1744
 1804 1927 1990 2054]
memory = 3929.608192
int3c2e [1/1], AO [0:30], ncol = 10404
Symmetry pattern (k + [ 1.14652369  0.         -0.38217456])*a= 2n pi
    make_kpt for [132 149 159 164]
kpt = [ 1.14652369 -0.76434913 -0.38217456]
adapted_ji_idx = [1185 1235 1286 1391 1445 1500]
memory = 3929.64096
int3c2e [1/1], AO [0:30], ncol = 10404
kpt = [ 0.38217456 -1.52869826  0.38217456]
adapted_ji_idx = [1334 1552]
memory = 3929.645056
int3c2e [1/1], AO [0:30], ncol = 10404
kpt = [ 0.38217456  0.         -1.14652369]
adapted_ji_idx = [1597 1655 1714 1835 1897 1960]
memory = 3928.6784
int3c2e [1/1], AO [0:30], ncol = 10404
kpt = [-0.38217456 -0.76434913 -0.38217456]
adapted_ji_idx = [1770 2020]
memory = 3929.001984
int3c2e [1/1], AO [0:30], ncol = 10404
Cholesky decomposition for j2c at kpt 37
Symmetry pattern (k - [ 0.76434913 -0.76434913  0.38217456])*a= 2n pi
    make_kpt for uniq_kptji_ids [37 53]
kpt = [ 0.76434913 -0.76434913  0.38217456]
adapted_ji_idx = [ 148  166  185  205  556  590  625  661 1220 1270 1321 1373]
memory = 3928.080384
int3c2e [1/1], AO [0:30], ncol = 10404
kpt = [ 0.          0.         -0.38217456]
adapted_ji_idx = [ 210  232  255  279  304  330  357  385  414  444  475  507  682  720
  759  799  840  882  925  969 1014 1060 1107 1155 1410 1464 1519 1575
 1632 1690 1749 1809 1870 1932 1995 2059]
memory = 3929.899008
int3c2e [1/1], AO [0:30], ncol = 10404
Symmetry pattern (k + [ 0.76434913 -0.76434913  0.38217456])*a= 2n pi
    make_kpt for [127 165]
kpt = [ 0.76434913 -0.76434913 -0.38217456]
adapted_ji_idx = [1180 1230 1281 1333 1386 1440 1495 1551 1608 1666 1725 1785]
memory = 3931.17696
int3c2e [1/1], AO [0:30], ncol = 10404
kpt = [ 0.          0.         -1.14652369]
adapted_ji_idx = [1830 1892 1955 2019]
memory = 3931.123712
int3c2e [1/1], AO [0:30], ncol = 10404
Cholesky decomposition for j2c at kpt 38
Symmetry pattern (k - [ 0.95543641 -0.57326185  0.19108728])*a= 2n pi
    make_kpt for uniq_kptji_ids [38 52 54 59]
kpt = [ 0.95543641 -0.57326185  0.19108728]
adapted_ji_idx = [ 149  167  186  557  591  626 1221 1271 1322]
memory = 3930.443776
int3c2e [1/1], AO [0:30], ncol = 10404
kpt = [ 0.19108728 -1.33761098  0.95543641]
adapted_ji_idx = [ 202  658 1370]
memory = 3930.710016
int3c2e [1/1], AO [0:30], ncol = 10404
kpt = [ 0.19108728  0.19108728 -0.57326185]
adapted_ji_idx = [ 211  233  256  305  331  358  415  445  476  683  721  760  841  883
  926 1015 1061 1108 1411 1465 1520 1633 1691 1750 1871 1933 1996]
memory = 3930.33728
int3c2e [1/1], AO [0:30], ncol = 10404
kpt = [-0.57326185 -0.57326185  0.19108728]
adapted_ji_idx = [ 276  382  504  796  966 1152 1572 1806 2056]
memory = 3930.820608
int3c2e [1/1], AO [0:30], ncol = 10404
Symmetry pattern (k + [ 0.95543641 -0.57326185  0.19108728])*a= 2n pi
    make_kpt for [130 140 168 169]
kpt = [ 1.33761098 -0.19108728 -0.95543641]
adapted_ji_idx = [1183 1389 1611]
memory = 3930.349568
int3c2e [1/1], AO [0:30], ncol = 10404
kpt = [ 0.57326185 -0.95543641 -0.19108728]
adapted_ji_idx = [1229 1280 1332 1439 1494 1550 1665 1724 1784]
memory = 3929.935872
int3c2e [1/1], AO [0:30], ncol = 10404
kpt = [ 0.57326185  0.57326185 -1.71978554]
adapted_ji_idx = [1833]
memory = 3929.890816
int3c2e [1/1], AO [0:30], ncol = 10404
kpt = [-0.19108728 -0.19108728 -0.95543641]
adapted_ji_idx = [1891 1954 2018]
memory = 3929.14944
int3c2e [1/1], AO [0:30], ncol = 10404
Cholesky decomposition for j2c at kpt 39
Symmetry pattern (k - [ 1.14652369 -0.38217456  0.        ])*a= 2n pi
    make_kpt for uniq_kptji_ids [39 48 55 58]
kpt = [ 1.14652369 -0.38217456  0.        ]
adapted_ji_idx = [ 150  168  558  592 1222 1272]
memory = 3929.530368
int3c2e [1/1], AO [0:30], ncol = 10404
kpt = [ 0.38217456 -1.14652369  0.76434913]
adapted_ji_idx = [ 183  203  623  659 1319 1371]
memory = 3929.628672
int3c2e [1/1], AO [0:30], ncol = 10404
kpt = [ 0.38217456  0.38217456 -0.76434913]
adapted_ji_idx = [ 212  234  306  332  416  446  684  722  842  884 1016 1062 1412 1466
 1634 1692 1872 1934]
memory = 3929.522176
int3c2e [1/1], AO [0:30], ncol = 10404
kpt = [-0.38217456 -0.38217456  0.        ]
adapted_ji_idx = [ 253  277  355  383  473  505  757  797  923  967 1105 1153 1517 1573
 1747 1807 1993 2057]
memory = 3930.861568
int3c2e [1/1], AO [0:30], ncol = 10404
Symmetry pattern (k + [ 1.14652369 -0.38217456  0.        ])*a= 2n pi
    make_kpt for [129 144 167 170]
kpt = [ 1.14652369 -0.38217456 -0.76434913]
adapted_ji_idx = [1182 1232 1388 1442 1610 1668]
memory = 3930.714112
int3c2e [1/1], AO [0:30], ncol = 10404
kpt = [ 0.38217456 -1.14652369  0.        ]
adapted_ji_idx = [1279 1331 1493 1549 1723 1783]
memory = 3930.632192
int3c2e [1/1], AO [0:30], ncol = 10404
kpt = [ 0.38217456  0.38217456 -1.52869826]
adapted_ji_idx = [1832 1894]
memory = 3930.554368
int3c2e [1/1], AO [0:30], ncol = 10404
kpt = [-0.38217456 -0.38217456 -0.76434913]
adapted_ji_idx = [1953 2017]
memory = 3929.841664
int3c2e [1/1], AO [0:30], ncol = 10404
Cholesky decomposition for j2c at kpt 40
Symmetry pattern (k - [ 1.33761098 -0.19108728 -0.19108728])*a= 2n pi
    make_kpt for uniq_kptji_ids [40 44 56 57]
kpt = [ 1.33761098 -0.19108728 -0.19108728]
adapted_ji_idx = [ 151  559 1223]
memory = 3929.505792
int3c2e [1/1], AO [0:30], ncol = 10404
kpt = [ 0.57326185 -0.95543641  0.57326185]
adapted_ji_idx = [ 165  184  204  589  624  660 1269 1320 1372]
memory = 3929.362432
int3c2e [1/1], AO [0:30], ncol = 10404
kpt = [ 0.57326185  0.57326185 -0.95543641]
adapted_ji_idx = [ 213  307  417  685  843 1017 1413 1635 1873]
memory = 3931.119616
int3c2e [1/1], AO [0:30], ncol = 10404
kpt = [-0.19108728 -0.19108728 -0.19108728]
adapted_ji_idx = [ 231  254  278  329  356  384  443  474  506  719  758  798  881  924
  968 1059 1106 1154 1463 1518 1574 1689 1748 1808 1931 1994 2058]
memory = 3930.632192
int3c2e [1/1], AO [0:30], ncol = 10404
Symmetry pattern (k + [ 1.33761098 -0.19108728 -0.19108728])*a= 2n pi
    make_kpt for [128 148 166 171]
kpt = [ 0.95543641 -0.57326185 -0.57326185]
adapted_ji_idx = [1181 1231 1282 1387 1441 1496 1609 1667 1726]
memory = 3931.185152
int3c2e [1/1], AO [0:30], ncol = 10404
kpt = [ 0.19108728 -1.33761098  0.19108728]
adapted_ji_idx = [1330 1548 1782]
memory = 3930.13248
int3c2e [1/1], AO [0:30], ncol = 10404
kpt = [ 0.19108728  0.19108728 -1.33761098]
adapted_ji_idx = [1831 1893 1956]
memory = 3929.7024
int3c2e [1/1], AO [0:30], ncol = 10404
kpt = [-0.57326185 -0.57326185 -0.57326185]
adapted_ji_idx = [2016]
memory = 3929.27232
int3c2e [1/1], AO [0:30], ncol = 10404
Cholesky decomposition for j2c at kpt 74
Symmetry pattern (k - [ 0.38217456 -0.38217456 -0.38217456])*a= 2n pi
    make_kpt for uniq_kptji_ids [74]
kpt = [ 0.38217456 -0.38217456 -0.38217456]
adapted_ji_idx = [ 528  562  597  633  670  708  747  787  828  870  913  957 1002 1048
 1095 1143 1192 1242 1293 1345 1398 1452 1507 1563 1620 1678 1737 1797
 1858 1920 1983 2047]
memory = 3928.518656
int3c2e [1/1], AO [0:30], ncol = 10404
Symmetry pattern (k + [ 0.38217456 -0.38217456 -0.38217456])*a= 2n pi
    make_kpt for [74]
Cholesky decomposition for j2c at kpt 75
Symmetry pattern (k - [ 0.57326185 -0.19108728 -0.57326185])*a= 2n pi
    make_kpt for uniq_kptji_ids [75 98]
kpt = [ 0.57326185 -0.19108728 -0.57326185]
adapted_ji_idx = [ 529  563  598  671  709  748  829  871  914 1003 1049 1096 1193 1243
 1294 1399 1453 1508 1621 1679 1738 1859 1921 1984]
memory = 3931.680768
int3c2e [1/1], AO [0:30], ncol = 10404
kpt = [-0.19108728 -0.95543641  0.19108728]
adapted_ji_idx = [ 630  784  954 1140 1342 1560 1794 2044]
memory = 3931.508736
int3c2e [1/1], AO [0:30], ncol = 10404
Symmetry pattern (k + [ 0.57326185 -0.19108728 -0.57326185])*a= 2n pi
    make_kpt for [77 90]
kpt = [ 0.95543641  0.19108728 -0.95543641]
adapted_ji_idx = [ 531  673  831 1005 1195 1401 1623 1861]
memory = 3930.689536
int3c2e [1/1], AO [0:30], ncol = 10404
kpt = [ 0.19108728 -0.57326185 -0.19108728]
adapted_ji_idx = [ 561  596  632  707  746  786  869  912  956 1047 1094 1142 1241 1292
 1344 1451 1506 1562 1677 1736 1796 1919 1982 2046]
memory = 3930.27584
int3c2e [1/1], AO [0:30], ncol = 10404
Cholesky decomposition for j2c at kpt 76
Symmetry pattern (k - [ 0.76434913  0.         -0.76434913])*a= 2n pi
    make_kpt for uniq_kptji_ids [76 94]
kpt = [ 0.76434913  0.         -0.76434913]
adapted_ji_idx = [ 530  564  672  710  830  872 1004 1050 1194 1244 1400 1454 1622 1680
 1860 1922]
memory = 3930.943488
int3c2e [1/1], AO [0:30], ncol = 10404
kpt = [ 0.         -0.76434913  0.        ]
adapted_ji_idx = [ 595  631  745  785  911  955 1093 1141 1291 1343 1505 1561 1735 1795
 1981 2045]
memory = 3931.062272
int3c2e [1/1], AO [0:30], ncol = 10404
Symmetry pattern (k + [ 0.76434913  0.         -0.76434913])*a= 2n pi
    make_kpt for [76 94]
Cholesky decomposition for j2c at kpt 78
Symmetry pattern (k - [ 0.57326185 -0.57326185 -0.19108728])*a= 2n pi
    make_kpt for uniq_kptji_ids [ 78 116]
kpt = [ 0.57326185 -0.57326185 -0.19108728]
adapted_ji_idx = [ 532  566  601  637  674  712  751  791  832  874  917  961 1196 1246
 1297 1349 1402 1456 1511 1567 1624 1682 1741 1801]
memory = 3930.76736
int3c2e [1/1], AO [0:30], ncol = 10404
kpt = [-0.19108728  0.19108728 -0.95543641]
adapted_ji_idx = [ 990 1036 1083 1131 1846 1908 1971 2035]
memory = 3931.205632
int3c2e [1/1], AO [0:30], ncol = 10404
Symmetry pattern (k + [ 0.57326185 -0.57326185 -0.19108728])*a= 2n pi
    make_kpt for [ 86 102]
kpt = [ 0.95543641 -0.95543641  0.19108728]
adapted_ji_idx = [ 540  574  609  645 1204 1254 1305 1357]
memory = 3930.54208
int3c2e [1/1], AO [0:30], ncol = 10404
kpt = [ 0.19108728 -0.19108728 -0.57326185]
adapted_ji_idx = [ 666  704  743  783  824  866  909  953  998 1044 1091 1139 1394 1448
 1503 1559 1616 1674 1733 1793 1854 1916 1979 2043]
memory = 3931.46368
int3c2e [1/1], AO [0:30], ncol = 10404
Cholesky decomposition for j2c at kpt 79
Symmetry pattern (k - [ 0.76434913 -0.38217456 -0.38217456])*a= 2n pi
    make_kpt for uniq_kptji_ids [ 79  99 117 122]
kpt = [ 0.76434913 -0.38217456 -0.38217456]
adapted_ji_idx = [ 533  567  602  675  713  752  833  875  918 1197 1247 1298 1403 1457
 1512 1625 1683 1742]
memory = 3931.029504
int3c2e [1/1], AO [0:30], ncol = 10404
kpt = [ 0.         -1.14652369  0.38217456]
adapted_ji_idx = [ 634  788  958 1346 1564 1798]
memory = 3931.42272
int3c2e [1/1], AO [0:30], ncol = 10404
kpt = [ 0.          0.38217456 -1.14652369]
adapted_ji_idx = [ 991 1037 1084 1847 1909 1972]
memory = 3931.451392
int3c2e [1/1], AO [0:30], ncol = 10404
kpt = [-0.76434913 -0.38217456 -0.38217456]
adapted_ji_idx = [1128 2032]
memory = 3931.303936
int3c2e [1/1], AO [0:30], ncol = 10404
Symmetry pattern (k + [ 0.76434913 -0.38217456 -0.38217456])*a= 2n pi
    make_kpt for [ 89  93 105 106]
kpt = [ 1.52869826 -0.38217456 -0.38217456]
adapted_ji_idx = [ 543 1207]
memory = 3930.345472
int3c2e [1/1], AO [0:30], ncol = 10404
kpt = [ 0.76434913 -1.14652369  0.38217456]
adapted_ji_idx = [ 573  608  644 1253 1304 1356]
memory = 3929.366528
int3c2e [1/1], AO [0:30], ncol = 10404
kpt = [ 0.76434913  0.38217456 -1.14652369]
adapted_ji_idx = [ 669  827 1001 1397 1619 1857]
memory = 3930.353664
int3c2e [1/1], AO [0:30], ncol = 10404
kpt = [ 0.         -0.38217456 -0.38217456]
adapted_ji_idx = [ 703  742  782  865  908  952 1043 1090 1138 1447 1502 1558 1673 1732
 1792 1915 1978 2042]
memory = 3930.791936
int3c2e [1/1], AO [0:30], ncol = 10404
Cholesky decomposition for j2c at kpt 80
Symmetry pattern (k - [ 0.95543641 -0.19108728 -0.57326185])*a= 2n pi
    make_kpt for uniq_kptji_ids [ 80  95 118 121]
kpt = [ 0.95543641 -0.19108728 -0.57326185]
adapted_ji_idx = [ 534  568  676  714  834  876 1198 1248 1404 1458 1626 1684]
memory = 3931.598848
int3c2e [1/1], AO [0:30], ncol = 10404
kpt = [ 0.19108728 -0.95543641  0.19108728]
adapted_ji_idx = [ 599  635  749  789  915  959 1295 1347 1509 1565 1739 1799]
memory = 3931.836416
int3c2e [1/1], AO [0:30], ncol = 10404
kpt = [ 0.19108728  0.57326185 -1.33761098]
adapted_ji_idx = [ 992 1038 1848 1910]
memory = 3931.435008
int3c2e [1/1], AO [0:30], ncol = 10404
kpt = [-0.57326185 -0.19108728 -0.57326185]
adapted_ji_idx = [1081 1129 1969 2033]
memory = 3930.947584
int3c2e [1/1], AO [0:30], ncol = 10404
Symmetry pattern (k + [ 0.95543641 -0.19108728 -0.57326185])*a= 2n pi
    make_kpt for [ 88  97 104 107]
kpt = [ 1.33761098 -0.57326185 -0.19108728]
adapted_ji_idx = [ 542  576 1206 1256]
memory = 3930.693632
int3c2e [1/1], AO [0:30], ncol = 10404
kpt = [ 0.57326185 -1.33761098  0.57326185]
adapted_ji_idx = [ 607  643 1303 1355]
memory = 3930.86976
int3c2e [1/1], AO [0:30], ncol = 10404
kpt = [ 0.57326185  0.19108728 -0.95543641]
adapted_ji_idx = [ 668  706  826  868 1000 1046 1396 1450 1618 1676 1856 1918]
memory = 3930.345472
int3c2e [1/1], AO [0:30], ncol = 10404
kpt = [-0.19108728 -0.57326185 -0.19108728]
adapted_ji_idx = [ 741  781  907  951 1089 1137 1501 1557 1731 1791 1977 2041]
memory = 3931.295744
int3c2e [1/1], AO [0:30], ncol = 10404
Cholesky decomposition for j2c at kpt 81
Symmetry pattern (k - [ 1.14652369  0.         -0.76434913])*a= 2n pi
    make_kpt for uniq_kptji_ids [ 81  91 119 120]
kpt = [ 1.14652369  0.         -0.76434913]
adapted_ji_idx = [ 535  677  835 1199 1405 1627]
memory = 3931.181056
int3c2e [1/1], AO [0:30], ncol = 10404
kpt = [ 0.38217456 -0.76434913  0.        ]
adapted_ji_idx = [ 565  600  636  711  750  790  873  916  960 1245 1296 1348 1455 1510
 1566 1681 1740 1800]
memory = 3931.103232
int3c2e [1/1], AO [0:30], ncol = 10404
kpt = [ 0.38217456  0.76434913 -1.52869826]
adapted_ji_idx = [ 993 1849]
memory = 3931.648
int3c2e [1/1], AO [0:30], ncol = 10404
kpt = [-0.38217456  0.         -0.76434913]
adapted_ji_idx = [1035 1082 1130 1907 1970 2034]
memory = 3930.611712
int3c2e [1/1], AO [0:30], ncol = 10404
Symmetry pattern (k + [ 1.14652369  0.         -0.76434913])*a= 2n pi
    make_kpt for [ 87 101 103 108]
kpt = [ 1.14652369 -0.76434913  0.        ]
adapted_ji_idx = [ 541  575  610 1205 1255 1306]
memory = 3930.742784
int3c2e [1/1], AO [0:30], ncol = 10404
kpt = [ 0.38217456 -1.52869826  0.76434913]
adapted_ji_idx = [ 642 1354]
memory = 3930.607616
int3c2e [1/1], AO [0:30], ncol = 10404
kpt = [ 0.38217456  0.         -0.76434913]
adapted_ji_idx = [ 667  705  744  825  867  910  999 1045 1092 1395 1449 1504 1617 1675
 1734 1855 1917 1980]
memory = 3930.001408
int3c2e [1/1], AO [0:30], ncol = 10404
kpt = [-0.38217456 -0.76434913  0.        ]
adapted_ji_idx = [ 780  950 1136 1556 1790 2040]
memory = 3931.05408
int3c2e [1/1], AO [0:30], ncol = 10404
Cholesky decomposition for j2c at kpt 82
Symmetry pattern (k - [ 0.76434913 -0.76434913  0.        ])*a= 2n pi
    make_kpt for uniq_kptji_ids [ 82 109]
kpt = [ 0.76434913 -0.76434913  0.        ]
adapted_ji_idx = [ 536  570  605  641  678  716  755  795 1200 1250 1301 1353 1406 1460
 1515 1571]
memory = 3931.078656
int3c2e [1/1], AO [0:30], ncol = 10404
kpt = [ 0.          0.         -0.76434913]
adapted_ji_idx = [ 820  862  905  949  994 1040 1087 1135 1612 1670 1729 1789 1850 1912
 1975 2039]
memory = 3931.5456
int3c2e [1/1], AO [0:30], ncol = 10404
Symmetry pattern (k + [ 0.76434913 -0.76434913  0.        ])*a= 2n pi
    make_kpt for [ 82 109]
Cholesky decomposition for j2c at kpt 83
Symmetry pattern (k - [ 0.95543641 -0.57326185 -0.19108728])*a= 2n pi
    make_kpt for uniq_kptji_ids [ 83 100 110 115]
kpt = [ 0.95543641 -0.57326185 -0.19108728]
adapted_ji_idx = [ 537  571  606  679  717  756 1201 1251 1302 1407 1461 1516]
memory = 3931.164672
int3c2e [1/1], AO [0:30], ncol = 10404
kpt = [ 0.19108728 -1.33761098  0.57326185]
adapted_ji_idx = [ 638  792 1350 1568]
memory = 3931.25888
int3c2e [1/1], AO [0:30], ncol = 10404
kpt = [ 0.19108728  0.19108728 -0.95543641]
adapted_ji_idx = [ 821  863  906  995 1041 1088 1613 1671 1730 1851 1913 1976]
memory = 3930.8288
int3c2e [1/1], AO [0:30], ncol = 10404
kpt = [-0.57326185 -0.57326185 -0.19108728]
adapted_ji_idx = [ 946 1132 1786 2036]
memory = 3931.672576
int3c2e [1/1], AO [0:30], ncol = 10404
Symmetry pattern (k + [ 0.95543641 -0.57326185 -0.19108728])*a= 2n pi
    make_kpt for [ 85  92 112 113]
kpt = [ 1.33761098 -0.19108728 -0.57326185]
adapted_ji_idx = [ 539  681 1203 1409]
memory = 3931.2384
int3c2e [1/1], AO [0:30], ncol = 10404
kpt = [ 0.57326185 -0.95543641  0.19108728]
adapted_ji_idx = [ 569  604  640  715  754  794 1249 1300 1352 1459 1514 1570]
memory = 3930.89024
int3c2e [1/1], AO [0:30], ncol = 10404
kpt = [ 0.57326185  0.57326185 -1.33761098]
adapted_ji_idx = [ 823  997 1615 1853]
memory = 3931.889664
int3c2e [1/1], AO [0:30], ncol = 10404
kpt = [-0.19108728 -0.19108728 -0.57326185]
adapted_ji_idx = [ 861  904  948 1039 1086 1134 1669 1728 1788 1911 1974 2038]
memory = 3931.136
int3c2e [1/1], AO [0:30], ncol = 10404
Cholesky decomposition for j2c at kpt 84
Symmetry pattern (k - [ 1.14652369 -0.38217456 -0.38217456])*a= 2n pi
    make_kpt for uniq_kptji_ids [ 84  96 111 114]
kpt = [ 1.14652369 -0.38217456 -0.38217456]
adapted_ji_idx = [ 538  572  680  718 1202 1252 1408 1462]
memory = 3931.389952
int3c2e [1/1], AO [0:30], ncol = 10404
kpt = [ 0.38217456 -1.14652369  0.38217456]
adapted_ji_idx = [ 603  639  753  793 1299 1351 1513 1569]
memory = 3931.086848
int3c2e [1/1], AO [0:30], ncol = 10404
kpt = [ 0.38217456  0.38217456 -1.14652369]
adapted_ji_idx = [ 822  864  996 1042 1614 1672 1852 1914]
memory = 3930.202112
int3c2e [1/1], AO [0:30], ncol = 10404
kpt = [-0.38217456 -0.38217456 -0.38217456]
adapted_ji_idx = [ 903  947 1085 1133 1727 1787 1973 2037]
memory = 3930.116096
int3c2e [1/1], AO [0:30], ncol = 10404
Symmetry pattern (k + [ 1.14652369 -0.38217456 -0.38217456])*a= 2n pi
    make_kpt for [ 84  96 111 114]
    CPU time for j3c  80363.28 sec, wall time   3451.92 sec
    CPU time for Init get_k_kpts  80363.95 sec, wall time   3451.94 sec
    CPU time for get_k_kpts: make_kpt ki>=kj (0,*)      3.63 sec, wall time      0.20 sec
    CPU time for get_k_kpts: make_kpt ki>=kj (1,*)      9.41 sec, wall time      0.31 sec
    CPU time for get_k_kpts: make_kpt ki>=kj (2,*)     13.87 sec, wall time      0.44 sec
    CPU time for get_k_kpts: make_kpt ki>=kj (3,*)     18.88 sec, wall time      0.59 sec
    CPU time for get_k_kpts: make_kpt ki>=kj (4,*)     19.93 sec, wall time      0.63 sec
    CPU time for get_k_kpts: make_kpt ki>=kj (5,*)     24.18 sec, wall time      0.76 sec
    CPU time for get_k_kpts: make_kpt ki>=kj (6,*)     27.61 sec, wall time      0.87 sec
    CPU time for get_k_kpts: make_kpt ki>=kj (7,*)     31.25 sec, wall time      0.98 sec
    CPU time for get_k_kpts: make_kpt ki>=kj (8,*)     35.78 sec, wall time      1.12 sec
    CPU time for get_k_kpts: make_kpt ki>=kj (9,*)     38.04 sec, wall time      1.19 sec
    CPU time for get_k_kpts: make_kpt ki>=kj (10,*)     41.94 sec, wall time      1.32 sec
    CPU time for get_k_kpts: make_kpt ki>=kj (11,*)     54.36 sec, wall time      1.72 sec
    CPU time for get_k_kpts: make_kpt ki>=kj (12,*)     48.72 sec, wall time      1.53 sec
    CPU time for get_k_kpts: make_kpt ki>=kj (13,*)     51.33 sec, wall time      1.61 sec
    CPU time for get_k_kpts: make_kpt ki>=kj (14,*)     67.35 sec, wall time      2.16 sec
    CPU time for get_k_kpts: make_kpt ki>=kj (15,*)     57.94 sec, wall time      1.82 sec
    CPU time for get_k_kpts: make_kpt ki>=kj (16,*)     62.00 sec, wall time      1.95 sec
    CPU time for get_k_kpts: make_kpt ki>=kj (17,*)     65.13 sec, wall time      2.05 sec
    CPU time for get_k_kpts: make_kpt ki>=kj (18,*)     69.05 sec, wall time      2.18 sec
    CPU time for get_k_kpts: make_kpt ki>=kj (19,*)     72.21 sec, wall time      2.27 sec
    CPU time for get_k_kpts: make_kpt ki>=kj (20,*)     77.85 sec, wall time      2.44 sec
    CPU time for get_k_kpts: make_kpt ki>=kj (21,*)     79.92 sec, wall time      2.51 sec
    CPU time for get_k_kpts: make_kpt ki>=kj (22,*)     84.63 sec, wall time      2.66 sec
    CPU time for get_k_kpts: make_kpt ki>=kj (23,*)     85.55 sec, wall time      2.69 sec
    CPU time for get_k_kpts: make_kpt ki>=kj (24,*)     91.54 sec, wall time      2.87 sec
    CPU time for get_k_kpts: make_kpt ki>=kj (25,*)     95.13 sec, wall time      2.99 sec
    CPU time for get_k_kpts: make_kpt ki>=kj (26,*)     98.12 sec, wall time      3.08 sec
    CPU time for get_k_kpts: make_kpt ki>=kj (27,*)    103.27 sec, wall time      3.24 sec
    CPU time for get_k_kpts: make_kpt ki>=kj (28,*)    106.53 sec, wall time      3.34 sec
    CPU time for get_k_kpts: make_kpt ki>=kj (29,*)    110.65 sec, wall time      3.47 sec
    CPU time for get_k_kpts: make_kpt ki>=kj (30,*)    114.48 sec, wall time      3.60 sec
    CPU time for get_k_kpts: make_kpt ki>=kj (31,*)    120.48 sec, wall time      3.78 sec
    CPU time for get_k_kpts: make_kpt ki>=kj (32,*)    121.75 sec, wall time      3.82 sec
    CPU time for get_k_kpts: make_kpt ki>=kj (33,*)    126.22 sec, wall time      3.96 sec
    CPU time for get_k_kpts: make_kpt ki>=kj (34,*)    129.72 sec, wall time      4.07 sec
    CPU time for get_k_kpts: make_kpt ki>=kj (35,*)    132.90 sec, wall time      4.17 sec
    CPU time for get_k_kpts: make_kpt ki>=kj (36,*)    134.16 sec, wall time      4.22 sec
    CPU time for get_k_kpts: make_kpt ki>=kj (37,*)    139.16 sec, wall time      4.37 sec
    CPU time for get_k_kpts: make_kpt ki>=kj (38,*)    143.14 sec, wall time      4.49 sec
    CPU time for get_k_kpts: make_kpt ki>=kj (39,*)    145.16 sec, wall time      4.57 sec
    CPU time for get_k_kpts: make_kpt ki>=kj (40,*)    151.58 sec, wall time      4.76 sec
    CPU time for get_k_kpts: make_kpt ki>=kj (41,*)    154.39 sec, wall time      4.84 sec
    CPU time for get_k_kpts: make_kpt ki>=kj (42,*)    157.94 sec, wall time      4.96 sec
    CPU time for get_k_kpts: make_kpt ki>=kj (43,*)    162.73 sec, wall time      5.11 sec
    CPU time for get_k_kpts: make_kpt ki>=kj (44,*)    165.25 sec, wall time      5.18 sec
    CPU time for get_k_kpts: make_kpt ki>=kj (45,*)    169.92 sec, wall time      5.33 sec
    CPU time for get_k_kpts: make_kpt ki>=kj (46,*)    199.19 sec, wall time      6.27 sec
    CPU time for get_k_kpts: make_kpt ki>=kj (47,*)    207.02 sec, wall time      6.59 sec
    CPU time for get_k_kpts: make_kpt ki>=kj (48,*)    207.15 sec, wall time      6.53 sec
    CPU time for get_k_kpts: make_kpt ki>=kj (49,*)    211.57 sec, wall time      6.65 sec
    CPU time for get_k_kpts: make_kpt ki>=kj (50,*)    216.24 sec, wall time      6.79 sec
    CPU time for get_k_kpts: make_kpt ki>=kj (51,*)    217.88 sec, wall time      6.85 sec
    CPU time for get_k_kpts: make_kpt ki>=kj (52,*)    223.47 sec, wall time      7.02 sec
    CPU time for get_k_kpts: make_kpt ki>=kj (53,*)    227.85 sec, wall time      7.16 sec
    CPU time for get_k_kpts: make_kpt ki>=kj (54,*)    232.06 sec, wall time      7.29 sec
    CPU time for get_k_kpts: make_kpt ki>=kj (55,*)    226.44 sec, wall time      7.13 sec
    CPU time for get_k_kpts: make_kpt ki>=kj (56,*)    241.21 sec, wall time      7.59 sec
    CPU time for get_k_kpts: make_kpt ki>=kj (57,*)    237.12 sec, wall time      7.47 sec
    CPU time for get_k_kpts: make_kpt ki>=kj (58,*)    248.61 sec, wall time      7.80 sec
    CPU time for get_k_kpts: make_kpt ki>=kj (59,*)    252.39 sec, wall time      7.93 sec
    CPU time for get_k_kpts: make_kpt ki>=kj (60,*)    256.92 sec, wall time      8.07 sec
    CPU time for get_k_kpts: make_kpt ki>=kj (61,*)    257.20 sec, wall time      8.07 sec
    CPU time for get_k_kpts: make_kpt ki>=kj (62,*)    262.46 sec, wall time      8.24 sec
    CPU time for get_k_kpts: make_kpt ki>=kj (63,*)    277.14 sec, wall time      8.74 sec
Monkhorst pack size [4 4 4] ew_eta 1.2952459123645264 ew_cut 5.428678483328133
Ewald components = 0, -0.730869601067801, 0.661151075018325
    CPU time for get_j pass 1    115.92 sec, wall time      3.96 sec
    CPU time for get_j pass 2      7.56 sec, wall time      2.97 sec
    CPU time for vj and vk  88709.10 sec, wall time   3717.44 sec
Ewald components = 9.00674411881527e-134, -644.974612150364, 572.081161138653
E1 = (-318.4583957106166-1.093187497989978e-15j)  E_coul = (63.32590144645055+6.359523367985287e-18j)
init E= -328.025945275877
cond(S) = [ 2094896.66896862  1900919.98455615 10024972.48138951  1900919.98458762
  1900919.9846686   1908008.17267958  7434481.63371068 12336995.17304653
 10024972.48113509  7434481.63304618  3895048.52773971  7434481.63607381
  1900919.98461149 12336995.1690009   7434481.63499534  1908008.17265509
  1900919.9845084   1908008.17263996  7434481.63212495 12336995.1555922
  1908008.17268129  1900919.98452835 12336995.16642446  7434481.63287353
  7434481.63386842 12336995.17179547  7434481.63397923 11592672.78608738
 12336995.15240938  7434481.6335717  11592672.78341333  7434481.63999106
 10024972.47893432  7434481.6352063   3895048.5276189   7434481.63670858
  7434481.63478309 12336995.15601073  7434481.63307926 11592672.78890715
  3895048.52831208  7434481.63211195 10024972.47820449  7434481.63255415
  7434481.63363779 11592672.78892424  7434481.63310779 12336995.15576278
  1900919.9844782  12336995.15550805  7434481.63369085  1908008.1726441
 12336995.1531433   7434481.63759387 11592672.78580125  7434481.63677265
  7434481.63347517 11592672.78748921  7434481.63383043 12336995.17248126
  1908008.17273548  7434481.63481624 12336995.16474242  1900919.98456608]
    CPU time for initialize scf  89939.66 sec, wall time   3758.08 sec
HOMO = 0.472589240561  LUMO = 0.55331734793
     k-point                  mo_energy
   0 ( 0.000  0.000  0.000)   [-68.06584173 -10.69338872  -5.49643939  -3.57073685  -3.57069953
  -3.57069953  -1.22460194   0.47255895   0.47258924   0.47258924] [ 0.70341021  0.87101201  0.87101201  0.87115464  1.2058225   1.2058225
  1.26385274  1.30747951  1.30747951  1.3075219   1.59645511  1.99825698
  1.99835184  1.99835185  2.29157861  2.29166026  2.29166026  2.38808935
  2.38808935  2.5342605   2.5342605   2.53432297  3.00276477  3.00283027
  3.00283027  3.1314181   3.13144073  3.13144073  3.13286172  3.13286172
  3.21616449  3.43668612  3.43670271  3.43670271  3.45674478  4.00104045
  4.00104045  4.00105913  4.31474776  4.31474776  4.31484124  4.40275723
  4.73138919  4.73149034  4.73149034  4.78442512  4.78442512  5.22482889
  5.22490114  5.22490115  5.24053973  6.04333002  6.04335488  6.04335489
  7.41641143  7.41641143  7.64233035  7.64235066  7.64235066 11.3870276
 12.72751106 12.72754352 12.72754352 17.51829984 17.54844541 17.54849265
 17.54849266 23.72263075 23.72263075 23.72264705 23.74498245 23.74498245
 23.74498407 23.78627666 28.96162869 28.96162869 29.06676594 29.06677973
 29.06677973 42.17075629 42.17075629 42.29596852 42.2959812  42.2959812
 43.09195875 43.09196692 43.09196692 60.02214304 82.79020868 82.79022295
 82.79022295 86.95179344]
   1 (-0.000 -0.000  0.250)   [-68.06583355 -10.69241292  -5.49317766  -3.57211422  -3.57084949
  -3.57081398  -0.99956423   0.17095024   0.43637886   0.43643769] [ 0.74510073  0.90156721  0.90172897  0.93699706  1.14005994  1.14006979
  1.20109136  1.47058967  1.54638241  1.54638495  1.75327691  1.84338536
  1.84341884  1.89725314  2.12736276  2.12744518  2.33389374  2.36779832
  2.36782414  2.58214447  2.73091901  2.73093026  2.73583984  2.84546678
  2.84553396  2.94995938  2.94996234  3.06517043  3.10371295  3.10374978
  3.13652923  3.42328002  3.53413988  3.53416512  3.64287345  4.01256184
  4.01257169  4.13517062  4.15685316  4.35220751  4.4085323   4.40860062
  4.51696053  4.51700971  4.71105251  4.86150713  4.86155963  5.08425309
  5.26065847  5.26067763  5.45597238  5.45601696  5.5918414   6.01923699
  7.50122405  7.50122912  7.68827247  7.6882969   7.8010796  11.84760979
 12.18743361 12.26760563 12.26763838 17.0966119  17.41212909 17.4121706
 18.62942301 23.72239258 23.72702439 23.72703441 23.7424904  23.74249332
 23.74384452 23.77007343 29.00131455 29.00131699 29.09494145 29.09495607
 29.12328458 42.14081811 42.14082351 42.21213401 42.24860656 42.24861248
 42.35084849 42.50218782 42.5021958  61.0176404  82.52943809 82.70062752
 82.70064012 88.6669618 ]
   2 (-0.000 -0.000  0.500)   [-68.06580615 -10.69111086  -5.48840591  -3.57342144  -3.57096622
  -3.57092821  -0.58818735  -0.2129837    0.40885249   0.40894183] [ 0.7141068   0.8716159   0.87178724  0.98845107  1.24425123  1.32392582
  1.32397285  1.44272568  1.44273015  1.53215223  1.92005576  1.95724247
  1.96294885  1.96301058  2.07601402  2.07602269  2.2840985   2.29493793
  2.29496107  2.43505131  2.435057    2.6392812   2.74383219  2.80720626
  2.80721855  2.82586963  2.82592515  2.85328593  3.10786213  3.32297923
  3.32301096  3.4666874   3.61220428  3.61222076  3.68901613  3.99289339
  4.16902644  4.17649989  4.17657605  4.42908315  4.42912698  4.47375799
  4.58344486  4.58347476  4.65311473  4.90024764  4.90028692  5.16497509
  5.18611335  5.18619264  5.37109349  5.3711264   5.76911571  6.29321612
  7.47679228  7.47679691  7.76420168  7.76422807  8.02465586 11.87888
 12.34731999 12.34735718 12.36736133 17.01100747 17.37231721 17.37235906
 18.93057377 23.72216455 23.72940134 23.72940258 23.73310857 23.74461673
 23.74462779 23.75104517 28.97309399 28.97309562 29.13181073 29.13182497
 29.24844064 42.16730737 42.16731398 42.20756468 42.22516776 42.22517214
 42.39908323 42.53755407 42.53756347 61.2258948  82.41023603 82.66959013
 82.66960276 89.30251687]
   3 (-0.000 -0.000  0.750)   [-68.06583355 -10.69241292  -5.49317766  -3.57211422  -3.57084949
  -3.57081398  -0.99956423   0.17095024   0.43637886   0.43643769] [ 0.74510073  0.90156721  0.90172897  0.93699706  1.14005994  1.14006979
  1.20109136  1.47058967  1.54638241  1.54638495  1.75327691  1.84338536
  1.84341884  1.89725314  2.12736276  2.12744518  2.33389374  2.36779832
  2.36782414  2.58214447  2.73091901  2.73093026  2.73583985  2.84546677
  2.84553396  2.94995938  2.94996234  3.06517043  3.10371295  3.10374978
  3.13652923  3.42328003  3.53413986  3.53416512  3.64287346  4.01256184
  4.01257169  4.13517062  4.15685316  4.35220751  4.40853229  4.40860062
  4.51696052  4.51700971  4.71105251  4.86150713  4.86155963  5.08425309
  5.26065847  5.26067762  5.45597237  5.45601696  5.5918414   6.01923701
  7.50122405  7.50122912  7.68827247  7.6882969   7.80107961 11.84760979
 12.18743361 12.26760563 12.26763838 17.0966119  17.41212909 17.4121706
 18.62942302 23.72239258 23.72702439 23.72703441 23.7424904  23.74249332
 23.74384452 23.77007343 29.00131455 29.00131699 29.09494145 29.09495607
 29.12328458 42.14081811 42.14082351 42.21213401 42.24860656 42.24861248
 42.35084849 42.50218782 42.5021958  61.0176404  82.52943809 82.70062752
 82.70064012 88.6669618 ]
   4 ( 0.000  0.250 -0.000)   [-68.06583355 -10.69241292  -5.49317766  -3.57211422  -3.57084949
  -3.57081398  -0.99956423   0.17095024   0.43637886   0.43643769] [ 0.74510073  0.90156721  0.90172897  0.93699706  1.14005994  1.14006979
  1.20109136  1.47058967  1.54638241  1.54638495  1.75327691  1.84338536
  1.84341884  1.89725314  2.12736276  2.12744518  2.33389374  2.36779832
  2.36782414  2.58214447  2.73091901  2.73093025  2.73583984  2.84546676
  2.84553396  2.94995938  2.94996234  3.06517043  3.10371294  3.10374978
  3.13652923  3.42328008  3.53413978  3.53416517  3.64287346  4.01256181
  4.01257171  4.13517063  4.15685316  4.35220751  4.40853228  4.40860063
  4.51696052  4.51700972  4.71105251  4.86150712  4.86155963  5.08425312
  5.26065843  5.26067765  5.45597237  5.45601697  5.59184141  6.01923707
  7.50122406  7.50122911  7.68827246  7.68829691  7.80107962 11.84760979
 12.18743361 12.26760563 12.26763839 17.0966119  17.41212909 17.4121706
 18.62942303 23.72239258 23.72702439 23.72703441 23.7424904  23.74249332
 23.74384452 23.77007343 29.00131455 29.00131699 29.09494145 29.09495607
 29.12328458 42.14081811 42.14082351 42.21213401 42.24860656 42.24861248
 42.35084849 42.50218782 42.50219581 61.0176404  82.52943809 82.70062752
 82.70064012 88.6669618 ]
   5 ( 0.000  0.250  0.250)   [-68.06583106 -10.6921075   -5.49226391  -3.57210591  -3.57104109
  -3.57101208  -0.92851027   0.22613274   0.35612485   0.3562626 ] [ 0.69756177  0.79871862  1.02189234  1.02193756  1.02748819  1.28366469
  1.44384216  1.44386617  1.48310743  1.48924688  1.77201815  1.77205338
  1.79836796  1.92664778  2.06135453  2.20282322  2.20287424  2.29426312
  2.42069349  2.5468956   2.65278946  2.65279766  2.78694144  2.87334386
  2.87338391  2.90420405  2.92180043  3.14127603  3.15057109  3.17377023
  3.17381407  3.25523279  3.25524189  3.4486338   3.8585914   4.00880214
[...]
 18.72082701 23.65919313 23.66144089 23.66549468 23.672181   23.67848258
 23.68999688 23.6980483  28.90003331 28.90777726 29.03059331 29.03349726
 29.15727282 42.17250574 42.24374003 42.27965785 42.29534533 42.31469967
 42.3307439  42.40427647 42.43716833 60.96855273 82.48065972 82.72656971
 82.76639163 88.80534466]
  54 ( 0.750  0.250  0.500)   [-6.81830164e+01 -1.05774372e+01 -5.52708728e+00 -3.63391800e+00
 -3.63391135e+00 -3.63387725e+00 -2.48011077e-01 -5.05300507e-02
  5.23373416e-02  7.80063835e-02] [ 0.78676109  0.9779996   0.99486415  1.0074711   1.23399873  1.3484534
  1.49984226  1.6156747   1.63467788  1.72985919  1.74728116  1.79287418
  1.81388451  1.86485325  2.01769282  2.08238454  2.14301391  2.24460725
  2.41640033  2.43762625  2.45784962  2.45913107  2.48955563  2.64245472
  2.74699399  2.8639413   2.95258963  3.00221937  3.13791772  3.18652124
  3.38691576  3.52629749  3.6086693   3.87219578  3.98150033  4.03370776
  4.06494455  4.18642453  4.20029916  4.29218616  4.3562409   4.42502375
  4.75377118  4.83713372  4.88742774  4.93270402  4.99062087  5.00600003
  5.28413824  5.50299186  5.59457257  5.63397455  5.78237805  6.13931141
  7.381092    7.44339895  7.69821499  7.84839726  8.00409433 11.90276402
 12.1154907  12.28037352 12.28806747 17.14700238 17.35548689 17.83197674
 18.26222392 23.66120055 23.66397036 23.66596781 23.67065325 23.67119277
 23.68174975 23.69124549 28.86583588 28.92156858 29.03673412 29.15077617
 29.20536034 42.1707198  42.22055712 42.24821521 42.28876425 42.34161141
 42.35360158 42.46408932 42.48166543 61.10060298 82.52057607 82.66621328
 83.02222819 88.11851741]
  55 ( 0.750  0.250  0.750)   [-6.81830163e+01 -1.05774272e+01 -5.52709141e+00 -3.63393894e+00
 -3.63386288e+00 -3.63384529e+00 -3.04595469e-01 -5.48624962e-02
  1.04897027e-01  1.77768378e-01] [ 0.72651525  0.91557779  1.0372769   1.04824472  1.20942178  1.3435957
  1.43240036  1.51172694  1.53555021  1.72443965  1.78549369  1.78848708
  1.89361812  1.91215586  2.03106809  2.08774     2.18647587  2.22596034
  2.36803316  2.41744163  2.48097661  2.55128795  2.58719967  2.76449341
  2.81012132  2.84955209  2.92430796  2.99939124  3.02584285  3.19753005
  3.23197345  3.47036412  3.53961425  3.67794912  3.86032399  4.0515795
  4.09170522  4.20019191  4.24259046  4.38597684  4.47676787  4.48601953
  4.64423047  4.69844062  4.77894622  4.91638911  4.98502425  5.11604598
  5.1586016   5.27693026  5.36507335  5.47695392  5.61762662  6.05115822
  7.39676292  7.45264451  7.6556235   7.7021392   7.9142377  11.82750655
 12.1835037  12.2068319  12.31668536 17.08232856 17.43719562 17.45658024
 18.72082701 23.65919313 23.66144089 23.66549468 23.672181   23.67848258
 23.68999688 23.6980483  28.9000333  28.90777726 29.03059331 29.03349726
 29.15727282 42.17250574 42.24374003 42.27965785 42.29534533 42.31469967
 42.3307439  42.40427647 42.43716833 60.96855273 82.48065972 82.7265697
 82.76639163 88.80534466]
  56 ( 0.750  0.500  0.000)   [-6.81830163e+01 -1.05774272e+01 -5.52709141e+00 -3.63393894e+00
 -3.63386288e+00 -3.63384529e+00 -3.04595469e-01 -5.48624960e-02
  1.04897015e-01  1.77768396e-01] [ 0.72651525  0.91557778  1.03727691  1.04824472  1.20942178  1.3435957
  1.43240037  1.51172694  1.53555022  1.72443964  1.78549369  1.78848707
  1.89361812  1.91215586  2.0310681   2.08774     2.18647587  2.22596035
  2.36803318  2.41744164  2.48097662  2.55128796  2.58719967  2.76449341
  2.81012133  2.8495521   2.92430797  2.99939124  3.02584285  3.19753005
  3.23197345  3.47036426  3.5396144   3.67794917  3.86032418  4.05157951
  4.09170546  4.20019194  4.24259046  4.38597689  4.47676787  4.48601961
  4.64423047  4.69844068  4.77894627  4.91638911  4.98502426  5.11604599
  5.1586016   5.27693035  5.36507337  5.47695418  5.61762676  6.05115821
  7.39676292  7.45264458  7.6556235   7.70213921  7.91423771 11.82750656
 12.18350371 12.2068319  12.31668536 17.08232856 17.43719562 17.45658025
 18.72082701 23.65919313 23.66144089 23.66549468 23.672181   23.67848258
 23.68999688 23.6980483  28.90003331 28.90777726 29.03059332 29.03349726
 29.15727282 42.17250574 42.24374003 42.27965785 42.29534534 42.31469967
 42.3307439  42.40427647 42.43716833 60.96855273 82.48065972 82.7265697
 82.76639163 88.80534466]
  57 ( 0.750  0.500  0.250)   [-6.81830164e+01 -1.05774372e+01 -5.52708728e+00 -3.63391800e+00
 -3.63391135e+00 -3.63387725e+00 -2.48011077e-01 -5.05300507e-02
  5.23373416e-02  7.80063835e-02] [ 0.78676109  0.9779996   0.99486415  1.0074711   1.23399873  1.3484534
  1.49984226  1.6156747   1.63467789  1.72985919  1.74728116  1.79287418
  1.81388451  1.86485325  2.01769282  2.08238453  2.14301391  2.24460726
  2.41640037  2.43762625  2.45784962  2.45913107  2.48955562  2.64245473
  2.74699399  2.86394132  2.95258963  3.00221937  3.13791775  3.18652123
  3.38691582  3.52629742  3.60866928  3.87219578  3.98150033  4.03370777
  4.06494458  4.18642453  4.20029916  4.29218618  4.3562409   4.42502374
  4.75377119  4.83713372  4.88742775  4.93270402  4.99062103  5.00600003
  5.28413824  5.50299186  5.59457281  5.63397451  5.78237795  6.13931155
  7.38109202  7.44339897  7.69821499  7.84839724  8.00409434 11.90276402
 12.1154907  12.28037352 12.28806748 17.14700238 17.35548688 17.83197678
 18.26222392 23.66120055 23.66397036 23.66596781 23.67065325 23.67119277
 23.68174975 23.69124549 28.86583588 28.92156858 29.03673412 29.15077617
 29.20536034 42.1707198  42.22055712 42.24821521 42.28876425 42.34161141
 42.35360158 42.46408932 42.48166543 61.10060298 82.52057607 82.66621328
 83.02222819 88.11851741]
  58 ( 0.750  0.500  0.500)   [-6.81830163e+01 -1.05774272e+01 -5.52709141e+00 -3.63393894e+00
 -3.63386288e+00 -3.63384529e+00 -3.04595468e-01 -5.48624902e-02
  1.04897009e-01  1.77768377e-01] [ 0.72651526  0.91557779  1.03727691  1.04824472  1.20942179  1.34359569
  1.43240037  1.51172694  1.53555021  1.72443964  1.78549369  1.78848708
  1.89361812  1.91215586  2.03106811  2.08774     2.18647586  2.22596036
  2.3680332   2.41744163  2.48097661  2.55128797  2.58719967  2.76449342
  2.81012134  2.84955209  2.92430799  2.99939124  3.02584284  3.19753004
  3.23197345  3.47036428  3.53961469  3.6779491   3.8603243   4.0515795
  4.09170561  4.20019197  4.24259045  4.38597691  4.47676787  4.48601966
  4.64423046  4.69844076  4.77894634  4.9163891   4.98502426  5.11604599
  5.1586016   5.27693045  5.36507335  5.47695436  5.61762687  6.05115825
  7.39676292  7.45264465  7.6556235   7.70213922  7.91423775 11.82750656
 12.1835037  12.2068319  12.31668537 17.08232856 17.43719562 17.45658026
 18.72082701 23.65919312 23.66144089 23.66549468 23.672181   23.67848259
 23.68999688 23.6980483  28.90003331 28.90777726 29.03059331 29.03349726
 29.15727282 42.17250574 42.24374003 42.27965785 42.29534534 42.31469967
 42.3307439  42.40427647 42.43716833 60.96855273 82.48065972 82.7265697
 82.76639163 88.80534466]
  59 ( 0.750  0.500  0.750)   [-6.81830163e+01 -1.05774191e+01 -5.52709723e+00 -3.63391503e+00
 -3.63386324e+00 -3.63380885e+00 -3.47383868e-01 -1.05480359e-03
  8.65355815e-02  2.33776123e-01] [ 0.80903621  0.95802113  0.97314628  1.02131539  1.09344802  1.26342939
  1.41532428  1.48420138  1.55914931  1.71843871  1.72201631  1.82038451
  1.91671284  1.97320556  2.0920872   2.14185277  2.19709701  2.25367675
  2.32629473  2.39882879  2.52084115  2.56691184  2.65441397  2.79816243
  2.87648272  2.90954601  2.93668728  2.98660821  3.04653609  3.10724647
  3.12901351  3.44400493  3.45262786  3.51467507  3.80103993  4.07470198
  4.14749742  4.27850342  4.33608584  4.38384256  4.5521144   4.67748084
  4.72079493  4.73448064  4.7386124   4.91172715  4.98109286  5.06538677
  5.16837166  5.30974004  5.40378963  5.61313819  5.6621389   5.87326738
  7.34841706  7.46567436  7.62420735  7.69750818  7.89420843 11.87243102
 12.17499701 12.25031015 12.29046558 17.11686546 17.37096878 17.68873149
 18.49512985 23.6593665  23.66534319 23.66945199 23.6750116  23.67547423
 23.68946774 23.68972882 28.87440204 28.89858899 29.02157113 29.02921249
 29.12842107 42.15005128 42.23572103 42.24339323 42.30753361 42.33604021
 42.38759037 42.44872529 42.47153362 61.11806596 82.5108052  82.68252275
 82.91000891 88.49465534]
  60 ( 0.750  0.750  0.000)   [-68.18301625 -10.57740161  -5.52710614  -3.63384381  -3.63381346
  -3.63381346  -0.41534334   0.12799915   0.19718503   0.19718505] [ 0.74312325  0.84262403  1.04757735  1.04757736  1.09095466  1.2722279
  1.43877348  1.43877348  1.48112287  1.49057218  1.78332413  1.78332413
  1.81147685  1.92924142  2.06716973  2.21766966  2.21766966  2.28578207
  2.41971803  2.54628848  2.65291116  2.65291116  2.8080595   2.87357894
  2.87357894  2.90935951  2.91874585  3.15802535  3.1721901   3.1721901
  3.17240142  3.26858882  3.26858883  3.45236369  3.86136202  4.06246059
  4.06246059  4.20915535  4.30966653  4.30966654  4.43917948  4.48954865
  4.63265048  4.63265048  4.8766124   4.98676829  5.08195832  5.25410271
  5.25410272  5.2758252   5.49917854  5.49917855  5.58748096  5.745905
  7.38191223  7.51358848  7.69289879  7.74182812  7.74182812 11.93691668
 12.10073022 12.10073022 12.32955376 17.27489039 17.68524552 17.68524552
 18.52562949 23.66314237 23.66314237 23.6649493  23.66574039 23.68126625
 23.68126625 23.69720825 28.90498945 28.92855014 29.00937388 29.07310202
 29.07310202 42.2176448  42.2176448  42.2666871  42.28452229 42.3491555
 42.3491555  42.35139429 42.45630168 61.14154497 82.62847112 82.9079936
 82.9079936  88.59419666]
  61 ( 0.750  0.750  0.250)   [-6.81830163e+01 -1.05774272e+01 -5.52709141e+00 -3.63393894e+00
 -3.63386288e+00 -3.63384529e+00 -3.04595469e-01 -5.48624962e-02
  1.04897027e-01  1.77768378e-01] [ 0.72651525  0.91557779  1.0372769   1.04824472  1.20942178  1.3435957
  1.43240036  1.51172694  1.53555022  1.72443965  1.78549369  1.78848708
  1.89361812  1.91215586  2.0310681   2.08774     2.18647587  2.22596035
  2.36803318  2.41744164  2.48097662  2.55128797  2.58719967  2.76449341
  2.81012134  2.8495521   2.92430798  2.99939125  3.02584284  3.19753004
  3.23197346  3.47036426  3.53961449  3.67794931  3.86032417  4.05157952
  4.09170546  4.20019193  4.24259047  4.38597688  4.47676787  4.48601961
  4.6442305   4.6984407   4.77894629  4.91638912  4.98502426  5.11604598
  5.1586016   5.27693037  5.36507341  5.47695418  5.61762676  6.05115826
  7.39676293  7.45264459  7.6556235   7.70213921  7.91423772 11.82750656
 12.1835037  12.20683191 12.31668536 17.08232856 17.43719562 17.45658025
 18.72082701 23.65919313 23.66144089 23.66549468 23.672181   23.67848258
 23.68999688 23.6980483  28.90003331 28.90777726 29.03059331 29.03349726
 29.15727282 42.17250574 42.24374003 42.27965785 42.29534533 42.31469967
 42.3307439  42.40427647 42.43716833 60.96855273 82.48065972 82.72656971
 82.76639163 88.80534466]
  62 ( 0.750  0.750  0.500)   [-6.81830163e+01 -1.05774191e+01 -5.52709723e+00 -3.63391503e+00
 -3.63386324e+00 -3.63380885e+00 -3.47383868e-01 -1.05480359e-03
  8.65355815e-02  2.33776123e-01] [ 0.80903621  0.95802113  0.97314628  1.02131539  1.09344802  1.26342939
  1.41532428  1.48420137  1.55914931  1.71843871  1.72201631  1.82038451
  1.91671284  1.97320556  2.0920872   2.14185277  2.19709701  2.25367675
  2.32629473  2.39882879  2.52084113  2.56691184  2.65441396  2.79816239
  2.87648272  2.90954599  2.93668728  2.98660821  3.04653609  3.10724646
  3.12901352  3.44400466  3.45262776  3.51467494  3.80103991  4.07470193
  4.14749738  4.27850339  4.33608582  4.38384255  4.55211441  4.67748079
  4.72079494  4.73448058  4.73861211  4.9117271   4.98109284  5.06538672
  5.16837164  5.30974003  5.40378936  5.61313807  5.66213814  5.87326737
  7.34841705  7.46567427  7.62420734  7.69750818  7.89420836 11.87243102
 12.17499698 12.25031013 12.29046557 17.11686546 17.37096878 17.68873144
 18.49512984 23.6593665  23.66534319 23.66945199 23.6750116  23.67547423
 23.68946774 23.68972882 28.87440204 28.89858898 29.02157113 29.02921249
 29.12842106 42.15005128 42.23572103 42.24339323 42.3075336  42.33604021
 42.38759036 42.44872529 42.47153363 61.11806596 82.5108052  82.68252275
 82.9100089  88.49465534]
  63 ( 0.750  0.750  0.750)   [-68.18301614 -10.57739157  -5.52711213  -3.63385689  -3.63377535
  -3.63377535  -0.43507186   0.08371927   0.26134035   0.26134035] [ 0.83780735  0.91698447  0.91698447  0.99889534  1.13086468  1.13086468
  1.21122462  1.47802079  1.5506274   1.5506274   1.75637283  1.84861738
  1.84861738  1.90041509  2.14939157  2.14939157  2.33250679  2.37244668
  2.37244668  2.58406575  2.72809088  2.72809088  2.74688332  2.83243257
  2.83243258  2.96841987  2.96841987  3.06766995  3.1101175   3.11011751
  3.15182572  3.43432132  3.54274716  3.54274725  3.66183755  4.04382692
  4.04382695  4.15874686  4.20618547  4.38699071  4.45584641  4.45584641
  4.55253278  4.55253282  4.73333185  4.91446437  4.91446438  5.13252328
  5.30015763  5.30015768  5.51554281  5.51554282  5.6407159   6.07440983
  7.45524956  7.45524957  7.64667006  7.64667007  7.76513568 11.80265457
 12.13272274 12.21334848 12.21334849 17.19945036 17.51450195 17.51450196
 18.73287306 23.65935115 23.66395744 23.66395744 23.67938139 23.67938139
 23.68072547 23.70724222 28.92998205 28.92998205 29.02393425 29.02393425
 29.05254793 42.18633132 42.20037035 42.20037035 42.34740264 42.34740264
 42.39356881 42.4641121  42.4641121  60.93428566 82.61233267 82.78356255
 82.78356255 88.7423983 ]
    CPU time for get_k_kpts: make_kpt ki>=kj (0,*)      2.91 sec, wall time      0.10 sec
    CPU time for get_k_kpts: make_kpt ki>=kj (1,*)      7.73 sec, wall time      0.24 sec
    CPU time for get_k_kpts: make_kpt ki>=kj (2,*)     12.18 sec, wall time      0.39 sec
    CPU time for get_k_kpts: make_kpt ki>=kj (3,*)     19.37 sec, wall time      0.61 sec
    CPU time for get_k_kpts: make_kpt ki>=kj (4,*)     22.41 sec, wall time      0.70 sec
    CPU time for get_k_kpts: make_kpt ki>=kj (5,*)     26.19 sec, wall time      0.82 sec
    CPU time for get_k_kpts: make_kpt ki>=kj (6,*)     30.18 sec, wall time      0.95 sec
    CPU time for get_k_kpts: make_kpt ki>=kj (7,*)     33.01 sec, wall time      1.04 sec
    CPU time for get_k_kpts: make_kpt ki>=kj (8,*)     37.08 sec, wall time      1.16 sec
    CPU time for get_k_kpts: make_kpt ki>=kj (9,*)     39.53 sec, wall time      1.24 sec
    CPU time for get_k_kpts: make_kpt ki>=kj (10,*)     45.02 sec, wall time      1.42 sec
    CPU time for get_k_kpts: make_kpt ki>=kj (11,*)     44.58 sec, wall time      1.40 sec
    CPU time for get_k_kpts: make_kpt ki>=kj (12,*)     52.40 sec, wall time      1.65 sec
    CPU time for get_k_kpts: make_kpt ki>=kj (13,*)     53.59 sec, wall time      1.68 sec
    CPU time for get_k_kpts: make_kpt ki>=kj (14,*)     56.85 sec, wall time      1.79 sec
    CPU time for get_k_kpts: make_kpt ki>=kj (15,*)     63.71 sec, wall time      2.00 sec
    CPU time for get_k_kpts: make_kpt ki>=kj (16,*)     66.85 sec, wall time      2.10 sec
    CPU time for get_k_kpts: make_kpt ki>=kj (17,*)     69.79 sec, wall time      2.19 sec
    CPU time for get_k_kpts: make_kpt ki>=kj (18,*)     71.51 sec, wall time      2.25 sec
    CPU time for get_k_kpts: make_kpt ki>=kj (19,*)     76.28 sec, wall time      2.39 sec
    CPU time for get_k_kpts: make_kpt ki>=kj (20,*)     79.22 sec, wall time      2.49 sec
    CPU time for get_k_kpts: make_kpt ki>=kj (21,*)     83.18 sec, wall time      2.61 sec
    CPU time for get_k_kpts: make_kpt ki>=kj (22,*)     86.29 sec, wall time      2.71 sec
    CPU time for get_k_kpts: make_kpt ki>=kj (23,*)     90.60 sec, wall time      2.84 sec
    CPU time for get_k_kpts: make_kpt ki>=kj (24,*)     94.58 sec, wall time      2.97 sec
    CPU time for get_k_kpts: make_kpt ki>=kj (25,*)     98.89 sec, wall time      3.11 sec
    CPU time for get_k_kpts: make_kpt ki>=kj (26,*)    103.32 sec, wall time      3.24 sec
    CPU time for get_k_kpts: make_kpt ki>=kj (27,*)    106.46 sec, wall time      3.34 sec
    CPU time for get_k_kpts: make_kpt ki>=kj (28,*)    108.63 sec, wall time      3.41 sec
    CPU time for get_k_kpts: make_kpt ki>=kj (29,*)    112.15 sec, wall time      3.52 sec
    CPU time for get_k_kpts: make_kpt ki>=kj (30,*)    116.47 sec, wall time      3.66 sec
    CPU time for get_k_kpts: make_kpt ki>=kj (31,*)    120.78 sec, wall time      3.79 sec
    CPU time for get_k_kpts: make_kpt ki>=kj (32,*)    124.61 sec, wall time      3.92 sec
    CPU time for get_k_kpts: make_kpt ki>=kj (33,*)    127.01 sec, wall time      3.99 sec
    CPU time for get_k_kpts: make_kpt ki>=kj (34,*)    130.64 sec, wall time      4.10 sec
    CPU time for get_k_kpts: make_kpt ki>=kj (35,*)    135.12 sec, wall time      4.24 sec
    CPU time for get_k_kpts: make_kpt ki>=kj (36,*)    138.20 sec, wall time      4.34 sec
    CPU time for get_k_kpts: make_kpt ki>=kj (37,*)    143.09 sec, wall time      4.49 sec
    CPU time for get_k_kpts: make_kpt ki>=kj (38,*)    145.73 sec, wall time      4.58 sec
    CPU time for get_k_kpts: make_kpt ki>=kj (39,*)    160.26 sec, wall time      5.12 sec
    CPU time for get_k_kpts: make_kpt ki>=kj (40,*)    150.88 sec, wall time      4.74 sec
    CPU time for get_k_kpts: make_kpt ki>=kj (41,*)    154.35 sec, wall time      4.85 sec
    CPU time for get_k_kpts: make_kpt ki>=kj (42,*)    160.45 sec, wall time      5.04 sec
    CPU time for get_k_kpts: make_kpt ki>=kj (43,*)    166.54 sec, wall time      5.23 sec
    CPU time for get_k_kpts: make_kpt ki>=kj (44,*)    167.44 sec, wall time      5.25 sec
    CPU time for get_k_kpts: make_kpt ki>=kj (45,*)    169.89 sec, wall time      5.33 sec
    CPU time for get_k_kpts: make_kpt ki>=kj (46,*)    176.59 sec, wall time      5.54 sec
    CPU time for get_k_kpts: make_kpt ki>=kj (47,*)    178.04 sec, wall time      5.59 sec
    CPU time for get_k_kpts: make_kpt ki>=kj (48,*)    180.72 sec, wall time      5.67 sec
    CPU time for get_k_kpts: make_kpt ki>=kj (49,*)    184.37 sec, wall time      5.79 sec
    CPU time for get_k_kpts: make_kpt ki>=kj (50,*)    186.99 sec, wall time      5.87 sec
    CPU time for get_k_kpts: make_kpt ki>=kj (51,*)    192.35 sec, wall time      6.04 sec
    CPU time for get_k_kpts: make_kpt ki>=kj (52,*)    196.69 sec, wall time      6.18 sec
    CPU time for get_k_kpts: make_kpt ki>=kj (53,*)    197.86 sec, wall time      6.21 sec
    CPU time for get_k_kpts: make_kpt ki>=kj (54,*)    200.64 sec, wall time      6.30 sec
    CPU time for get_k_kpts: make_kpt ki>=kj (55,*)    204.45 sec, wall time      6.42 sec
    CPU time for get_k_kpts: make_kpt ki>=kj (56,*)    212.51 sec, wall time      6.67 sec
    CPU time for get_k_kpts: make_kpt ki>=kj (57,*)    215.24 sec, wall time      6.76 sec
    CPU time for get_k_kpts: make_kpt ki>=kj (58,*)    216.14 sec, wall time      6.79 sec
    CPU time for get_k_kpts: make_kpt ki>=kj (59,*)    222.84 sec, wall time      6.99 sec
    CPU time for get_k_kpts: make_kpt ki>=kj (60,*)    239.33 sec, wall time      7.55 sec
    CPU time for get_k_kpts: make_kpt ki>=kj (61,*)    239.31 sec, wall time      7.53 sec
    CPU time for get_k_kpts: make_kpt ki>=kj (62,*)    233.60 sec, wall time      7.34 sec
    CPU time for get_k_kpts: make_kpt ki>=kj (63,*)    237.35 sec, wall time      7.57 sec
Monkhorst pack size [4 4 4] ew_eta 1.2952459123645264 ew_cut 5.428678483328133
Ewald components = 0, -0.730869601067801, 0.661151075018325
    CPU time for get_j pass 1    107.00 sec, wall time      3.62 sec
    CPU time for get_j pass 2      6.80 sec, wall time      2.29 sec
    CPU time for vj and vk   7939.93 sec, wall time    251.90 sec
Ewald components = 9.00674411881527e-134, -644.974612150364, 572.081161138653
E1 = (-317.5745362562549+3.4741610828152097e-15j)  E_coul = (63.58344841995387+1.0727256773168036e-15j)
Extra cycle  E= -326.884538848012  delta_E= -2.13e-10  |g|= 5.84e-05  |ddm|= 0.00179
    CPU time for scf_cycle 154881.25 sec, wall time   5820.52 sec
    CPU time for SCF 154881.30 sec, wall time   5820.56 sec
converged SCF energy = -326.884538848012
