#INFO: **** input file is /burg/ccce/users/eav2136/projects/core_level_spectroscopy/01_peommp2_cbe/meanfield.py ****
#!/usr/bin/env python
import json
from pyscf.pbc import gto, scf
from pyscf.pbc.tools import lattice, pyscf_ase
from pyscf.pbc.scf import chkfile
from fileutils import load, dump
import sys

material = load("data/{}".format(sys.argv[1]))
# Create Cell
cell = gto.Cell()
ase_atom = lattice.get_ase_atom(material["formula"])
cell.atom = pyscf_ase.ase_atoms_to_pyscf(ase_atom)
cell.a = ase_atom.cell[:]
cell.unit = "B"
cell.basis = material["basis"]
cell.exp_to_discard = material["exp_to_discard"]
cell.verbose = 7
cell.build()

# Mean Field
kdensity = material["kdensity"]
kmesh = [kdensity, kdensity, kdensity]
kpts = cell.make_kpts(kmesh, scaled_center=material["vb_scaled_center"])
mymf = scf.KRHF(cell, kpts=kpts, exxdiv="ewald")
mymf.chkfile = "data/{}".format(material["chk"])
mymf = mymf.density_fit()
mymf.with_df._cderi_to_save = "data/{}".format(material["cderi"])
ekrhf = mymf.kernel()
convergence = mymf.converged
mymf_data = dict([("ekrhf", float(ekrhf)),
                  ("convergence", bool(convergence))])
dump(mymf_data, "data/{}".format(material["ekrhf"]))
#INFO: ******************** input file end ********************


System: uname_result(system='Linux', node='g113', release='4.18.0-193.el8.x86_64', version='#1 SMP Fri Mar 27 14:35:58 UTC 2020', machine='x86_64')  Threads 32
Python 3.10.12 (main, Jul 29 2023, 11:27:27) [GCC 13.2.0]
numpy 1.25.1  scipy 1.10.1
Date: Mon Jan 15 18:47:35 2024
PySCF version 2.0.1
PySCF path  /burg/berkelbach/users/eav2136/builds/pyscf/projected-cvs/pyscf
GIT ORIG_HEAD 0bfbc692adf3ea63b8a509210433219cd1c472a2
GIT HEAD (branch projected-cvs) e14caaa2dddc538b9be2d86f01e5b456fc92da36

[ENV] PYSCF_TMPDIR /burg/ccce/users/eav2136/projects/core_level_spectroscopy/01_peommp2_cbe/tmp
[ENV] PYSCF_MAX_MEMORY 700000
[CONFIG] DEBUG = False
[CONFIG] MAX_MEMORY = 700000
[CONFIG] TMPDIR = /burg/ccce/users/eav2136/projects/core_level_spectroscopy/01_peommp2_cbe/tmp
[CONFIG] UNIT = angstrom
[CONFIG] VERBOSE = 3
[CONFIG] conf_file = None
[INPUT] verbose = 7
[INPUT] max_memory = 700000 
[INPUT] num. atoms = 2
[INPUT] num. electrons = 20
[INPUT] charge = 0
[INPUT] spin (= nelec alpha-beta = 2S) = 0
[INPUT] symmetry False subgroup None
[INPUT] Mole.unit = B
[INPUT]  1 Si     0.000000000000   0.000000000000   0.000000000000 AA    0.000000000000   0.000000000000   0.000000000000 Bohr
[INPUT]  2 C      1.087499921985   1.087499921985   1.087499921985 AA    2.055077013037   2.055077013037   2.055077013037 Bohr
[INPUT] ---------------- BASIS SET ---------------- 
[INPUT] l, kappa, [nprim/nctr], expnt,             c_1 c_2 ...
[INPUT] C
[INPUT] 0    0    [8    /2   ]  8236              0.000531 -0.000113
                                1235              0.004108 -0.000878
                                280.8             0.021087 -0.00454
                                79.27             0.081853 -0.018133
                                25.59             0.234817 -0.05576
                                8.997             0.434401 -0.126895
                                3.319             0.346129 -0.170352
                                0.3643            -0.008983 0.598684
[INPUT] 0    0    [1    /1   ]  0.9059               1
[INPUT] 0    0    [1    /1   ]  0.1285               1
[INPUT] 1    0    [3    /1   ]  18.71             0.014031
                                4.133             0.086866
                                1.2               0.290216
[INPUT] 1    0    [1    /1   ]  0.3827               1
[INPUT] 1    0    [1    /1   ]  0.1209               1
[INPUT] 2    0    [1    /1   ]  1.097                1
[INPUT] 2    0    [1    /1   ]  0.318                1
[INPUT] 3    0    [1    /1   ]  0.761                1
[INPUT] 0    0    [1    /1   ]  4.292                1
[INPUT] 0    0    [1    /1   ]  11.876               1
[INPUT] 1    0    [1    /1   ]  8.778                1
[INPUT] 1    0    [1    /1   ]  33.19                1
[INPUT] 2    0    [1    /1   ]  14.839               1
[INPUT] Si
[INPUT] 0    0    [13   /3   ]  254900            6.25101e-05 -1.6637e-05 4.26257e-06
                                38190             0.000485553 -0.00012931 3.31062e-05
                                8690              0.00254516 -0.000678828 0.000174015
                                2462              0.0105866 -0.00284117 0.000727574
                                804.8             0.0368787 -0.0100551 0.00258333
                                291.3             0.107479 -0.0305774 0.00786354
                                113.6             0.247936 -0.0777256 0.0202155
                                46.75             0.390927 -0.154236 0.040732
                                19.82             0.302026 -0.180368 0.0499358
                                7.708             0.0559236 0.0798218 -0.0249396
                                3.34              -0.00402406 0.547441 -0.19035
                                1.402             0.0025803 0.480119 -0.31835
                                0.207             0.00060793 -0.0106996 0.68118
[INPUT] 0    0    [1    /1   ]  0.4387               1
[INPUT] 0    0    [1    /1   ]  0.07944              1
[INPUT] 1    0    [7    /2   ]  481.5             0.00192045 -0.00040522
                                113.9             0.0153552 -0.00335896
                                36.23             0.0713991 -0.015286
                                13.34             0.213052 -0.0489218
                                5.252             0.390354 -0.0855008
                                2.12              0.393721 -0.112137
                                0.2528            0.0039563 0.551919
[INPUT] 1    0    [1    /1   ]  0.8561               1
[INPUT] 1    0    [1    /1   ]  0.07889              1
[INPUT] 2    0    [1    /1   ]  0.159                1
[INPUT] 2    0    [1    /1   ]  0.481                1
[INPUT] 3    0    [1    /1   ]  0.336                1
[INPUT] 0    0    [1    /1   ]  9.164                1
[INPUT] 0    0    [1    /1   ]  1.621                1
[INPUT] 1    0    [1    /1   ]  6.458                1
[INPUT] 1    0    [1    /1   ]  2.517                1
[INPUT] 2    0    [1    /1   ]  10.671               1
[INPUT] 2    0    [1    /1   ]  3.308                1
[INPUT] 3    0    [1    /1   ]  7.001                1

Ewald components = 9.00674411881527e-134, -644.974612150364, 572.081161138653
nuclear repulsion = -72.8934510117114
number of shells = 30
number of NR pGTOs = 139
number of NR cGTOs = 102
basis = ccpcvtz
ecp = {}
bas 0, expnt(s) = [2.549e+05 3.819e+04 8.690e+03 2.462e+03 8.048e+02 2.913e+02 1.136e+02
 4.675e+01 1.982e+01 7.708e+00 3.340e+00 1.402e+00 2.070e-01]
bas 1, expnt(s) = [0.4387]
bas 2, expnt(s) = [0.07944]
bas 3, expnt(s) = [4.815e+02 1.139e+02 3.623e+01 1.334e+01 5.252e+00 2.120e+00 2.528e-01]
bas 4, expnt(s) = [0.8561]
bas 5, expnt(s) = [0.07889]
bas 6, expnt(s) = [0.159]
bas 7, expnt(s) = [0.481]
bas 8, expnt(s) = [0.336]
bas 9, expnt(s) = [9.164]
bas 10, expnt(s) = [1.621]
bas 11, expnt(s) = [6.458]
bas 12, expnt(s) = [2.517]
bas 13, expnt(s) = [10.671]
bas 14, expnt(s) = [3.308]
bas 15, expnt(s) = [7.001]
bas 16, expnt(s) = [8.236e+03 1.235e+03 2.808e+02 7.927e+01 2.559e+01 8.997e+00 3.319e+00
 3.643e-01]
bas 17, expnt(s) = [0.9059]
bas 18, expnt(s) = [0.1285]
bas 19, expnt(s) = [18.71   4.133  1.2  ]
bas 20, expnt(s) = [0.3827]
bas 21, expnt(s) = [0.1209]
bas 22, expnt(s) = [1.097]
bas 23, expnt(s) = [0.318]
bas 24, expnt(s) = [0.761]
bas 25, expnt(s) = [4.292]
bas 26, expnt(s) = [11.876]
bas 27, expnt(s) = [8.778]
bas 28, expnt(s) = [33.19]
bas 29, expnt(s) = [14.839]
CPU time:         1.06
lattice vectors  a1 [0.000000000, 4.110154026, 4.110154026]
                 a2 [4.110154026, 0.000000000, 4.110154026]
                 a3 [4.110154026, 4.110154026, 0.000000000]
dimension = 3
low_dim_ft_type = None
Cell volume = 138.869
rcut = 27.543043613549035 (nimgs = [6 6 6])
lattice sum = 1361 cells
precision = 1e-08
pseudo = None
ke_cutoff = 518236.2144944772
    = [1539 1539 1539] mesh (3645153819 PWs)


******** <class 'pyscf.pbc.scf.khf.KRHF'> ********
method = KRHF-KSCF-RHF-SCF-RHF
initial guess = minao
damping factor = 0
level_shift factor = 0
DIIS = <class 'pyscf.scf.diis.CDIIS'>
diis_start_cycle = 1
diis_space = 8
SCF conv_tol = 1e-07
SCF conv_tol_grad = None
SCF max_cycles = 50
direct_scf = True
direct_scf_tol = 1e-13
chkfile to save SCF result = data/sic_ccpcvtz_k3_C_1s_nvir_act21.chk
max_memory 700000 MB (current use 110 MB)


******** PBC SCF flags ********
N kpts = 27
kpts = [[ 0.00000000e+00  0.00000000e+00  0.00000000e+00]
 [ 2.54783043e-01  2.54783043e-01 -2.54783043e-01]
 [ 5.09566087e-01  5.09566087e-01 -5.09566087e-01]
 [ 2.54783043e-01 -2.54783043e-01  2.54783043e-01]
 [ 5.09566087e-01  2.28641341e-17 -2.28641341e-17]
 [ 7.64349130e-01  2.54783043e-01 -2.54783043e-01]
 [ 5.09566087e-01 -5.09566087e-01  5.09566087e-01]
 [ 7.64349130e-01 -2.54783043e-01  2.54783043e-01]
 [ 1.01913217e+00  4.57282682e-17 -4.57282682e-17]
 [-2.54783043e-01  2.54783043e-01  2.54783043e-01]
 [ 2.28641341e-17  5.09566087e-01 -2.28641341e-17]
 [ 2.54783043e-01  7.64349130e-01 -2.54783043e-01]
 [ 2.28641341e-17 -2.28641341e-17  5.09566087e-01]
 [ 2.54783043e-01  2.54783043e-01  2.54783043e-01]
 [ 5.09566087e-01  5.09566087e-01 -4.57282682e-17]
 [ 2.54783043e-01 -2.54783043e-01  7.64349130e-01]
 [ 5.09566087e-01 -3.26470171e-17  5.09566087e-01]
 [ 7.64349130e-01  2.54783043e-01  2.54783043e-01]
 [-5.09566087e-01  5.09566087e-01  5.09566087e-01]
 [-2.54783043e-01  7.64349130e-01  2.54783043e-01]
 [ 4.57282682e-17  1.01913217e+00 -4.57282682e-17]
 [-2.54783043e-01  2.54783043e-01  7.64349130e-01]
 [ 2.28641341e-17  5.09566087e-01  5.09566087e-01]
 [ 2.54783043e-01  7.64349130e-01  2.54783043e-01]
 [ 4.57282682e-17 -4.57282682e-17  1.01913217e+00]
 [ 2.54783043e-01  2.54783043e-01  7.64349130e-01]
 [ 5.09566087e-01  5.09566087e-01  5.09566087e-01]]
Exchange divergence treatment (exxdiv) = ewald
Monkhorst pack size [3 3 3] ew_eta 1.7082808598635142 ew_cut 4.117786017015192
Ewald components = 0, -0.963937826851544, 0.870979792219628
    madelung (= occupied orbital energy shift) = 0.1859160692638322
    Total energy shift due to Ewald probe charge = -1/2 * Nelec*madelung = -1.85916069264
DF object = <pyscf.pbc.df.df.GDF object at 0x155553f37fd0>
Set gradient conv threshold to 0.000316228
Big error detected in the electron number of initial guess density matrix (Ne/cell = 19.9988)!
  This can cause huge error in Fock matrix and lead to instability in SCF for low-dimensional systems.
  DM is normalized wrt the number of electrons 20.0
    CPU time for vnuc pass1: analytic int    674.14 sec, wall time     21.55 sec
    CPU time for contracting Vnuc [0:512]     57.36 sec, wall time      1.83 sec
    CPU time for contracting Vnuc     57.36 sec, wall time      1.83 sec
    CPU time for get_nuc    731.68 sec, wall time     23.39 sec


******** <class 'pyscf.pbc.df.df.GDF'> ********
mesh = [9, 9, 9] (729 PWs)
auxbasis = None
eta = 0.2
exp_to_discard = None
_cderi_to_save = data/sic_ccpcvtz_k3_C_1s_nvir_act21_cderi.h5
len(kpts) = 27
    kpts = [[ 0.00000000e+00  0.00000000e+00  0.00000000e+00]
 [ 2.54783043e-01  2.54783043e-01 -2.54783043e-01]
 [ 5.09566087e-01  5.09566087e-01 -5.09566087e-01]
 [ 2.54783043e-01 -2.54783043e-01  2.54783043e-01]
 [ 5.09566087e-01  2.28641341e-17 -2.28641341e-17]
 [ 7.64349130e-01  2.54783043e-01 -2.54783043e-01]
 [ 5.09566087e-01 -5.09566087e-01  5.09566087e-01]
 [ 7.64349130e-01 -2.54783043e-01  2.54783043e-01]
 [ 1.01913217e+00  4.57282682e-17 -4.57282682e-17]
 [-2.54783043e-01  2.54783043e-01  2.54783043e-01]
 [ 2.28641341e-17  5.09566087e-01 -2.28641341e-17]
 [ 2.54783043e-01  7.64349130e-01 -2.54783043e-01]
 [ 2.28641341e-17 -2.28641341e-17  5.09566087e-01]
 [ 2.54783043e-01  2.54783043e-01  2.54783043e-01]
 [ 5.09566087e-01  5.09566087e-01 -4.57282682e-17]
 [ 2.54783043e-01 -2.54783043e-01  7.64349130e-01]
 [ 5.09566087e-01 -3.26470171e-17  5.09566087e-01]
 [ 7.64349130e-01  2.54783043e-01  2.54783043e-01]
 [-5.09566087e-01  5.09566087e-01  5.09566087e-01]
 [-2.54783043e-01  7.64349130e-01  2.54783043e-01]
 [ 4.57282682e-17  1.01913217e+00 -4.57282682e-17]
 [-2.54783043e-01  2.54783043e-01  7.64349130e-01]
 [ 2.28641341e-17  5.09566087e-01  5.09566087e-01]
 [ 2.54783043e-01  7.64349130e-01  2.54783043e-01]
 [ 4.57282682e-17 -4.57282682e-17  1.01913217e+00]
 [ 2.54783043e-01  2.54783043e-01  7.64349130e-01]
 [ 5.09566087e-01  5.09566087e-01  5.09566087e-01]]
Even tempered Gaussians are generated as DF auxbasis for  C Si
  ETB auxbasis for C  [[0, [2105.344, 1]], [0, [1052.672, 1]], [0, [526.336, 1]], [0, [263.168, 1]], [0, [131.584, 1]], [0, [65.792, 1]], [0, [32.896, 1]], [0, [16.448, 1]], [0, [8.224, 1]], [0, [4.112, 1]], [0, [2.056, 1]], [0, [1.028, 1]], [0, [0.514, 1]], [0, [0.257, 1]], [1, [255.26699539423424, 1]], [1, [127.63349769711712, 1]], [1, [63.81674884855856, 1]], [1, [31.90837442427928, 1]], [1, [15.95418721213964, 1]], [1, [7.97709360606982, 1]], [1, [3.98854680303491, 1]], [1, [1.994273401517455, 1]], [1, [0.9971367007587275, 1]], [1, [0.49856835037936376, 1]], [1, [0.24928417518968188, 1]], [2, [247.6032, 1]], [2, [123.8016, 1]], [2, [61.9008, 1]], [2, [30.9504, 1]], [2, [15.4752, 1]], [2, [7.7376, 1]], [2, [3.8688, 1]], [2, [1.9344, 1]], [2, [0.9672, 1]], [2, [0.4836, 1]], [2, [0.2418, 1]], [3, [25.09785928719818, 1]], [3, [12.54892964359909, 1]], [3, [6.274464821799545, 1]], [3, [3.1372324108997725, 1]], [3, [1.5686162054498862, 1]], [3, [0.7843081027249431, 1]], [3, [0.39215405136247156, 1]], [4, [20.352, 1]], [4, [10.176, 1]], [4, [5.088, 1]], [4, [2.544, 1]], [4, [1.272, 1]], [4, [0.636, 1]]]
  ETB auxbasis for Si  [[0, [10412.35968, 1]], [0, [5206.17984, 1]], [0, [2603.08992, 1]], [0, [1301.54496, 1]], [0, [650.77248, 1]], [0, [325.38624, 1]], [0, [162.69312, 1]], [0, [81.34656, 1]], [0, [40.67328, 1]], [0, [20.33664, 1]], [0, [10.16832, 1]], [0, [5.08416, 1]], [0, [2.54208, 1]], [0, [1.27104, 1]], [0, [0.63552, 1]], [0, [0.31776, 1]], [0, [0.15888, 1]], [1, [2594.063068591702, 1]], [1, [1297.031534295851, 1]], [1, [648.5157671479255, 1]], [1, [324.2578835739628, 1]], [1, [162.1289417869814, 1]], [1, [81.0644708934907, 1]], [1, [40.53223544674535, 1]], [1, [20.266117723372673, 1]], [1, [10.133058861686337, 1]], [1, [5.066529430843168, 1]], [1, [2.533264715421584, 1]], [1, [1.266632357710792, 1]], [1, [0.633316178855396, 1]], [1, [0.316658089427698, 1]], [1, [0.158329044713849, 1]], [2, [646.26688, 1]], [2, [323.13344, 1]], [2, [161.56672, 1]], [2, [80.78336, 1]], [2, [40.39168, 1]], [2, [20.19584, 1]], [2, [10.09792, 1]], [2, [5.04896, 1]], [2, [2.52448, 1]], [2, [1.26224, 1]], [2, [0.63112, 1]], [2, [0.31556, 1]], [2, [0.15778, 1]], [3, [114.68575997812458, 1]], [3, [57.34287998906229, 1]], [3, [28.671439994531145, 1]], [3, [14.335719997265572, 1]], [3, [7.167859998632786, 1]], [3, [3.583929999316393, 1]], [3, [1.7919649996581966, 1]], [3, [0.8959824998290983, 1]], [3, [0.44799124991454914, 1]], [3, [0.22399562495727457, 1]], [4, [20.352, 1]], [4, [10.176, 1]], [4, [5.088, 1]], [4, [2.544, 1]], [4, [1.272, 1]], [4, [0.636, 1]], [4, [0.318, 1]]]
num shells = 111, num cGTOs = 465
Drop 0 primitive fitting functions
make aux basis, num shells = 111, num cGTOs = 465
auxcell.rcut 15.157222589146311
make compensating basis, num shells = 10, num cGTOs = 50
chgcell.rcut 11.482117703874595
    CPU time for 3c2e  42920.74 sec, wall time   1439.38 sec
Num uniq kpts 63
uniq_kpts [[ 0.00000000e+00  0.00000000e+00  0.00000000e+00]
 [-2.54783043e-01 -2.54783043e-01  2.54783043e-01]
 [-5.09566087e-01 -5.09566087e-01  5.09566087e-01]
 [-2.54783043e-01  2.54783043e-01 -2.54783043e-01]
 [ 0.00000000e+00  5.09566087e-01 -5.09566087e-01]
 [ 2.54783043e-01  7.64349130e-01 -7.64349130e-01]
 [-5.09566087e-01 -2.28641341e-17  2.28641341e-17]
 [-7.64349130e-01 -2.54783043e-01  2.54783043e-01]
 [-5.09566087e-01  5.09566087e-01 -5.09566087e-01]
 [-2.54783043e-01  7.64349130e-01 -7.64349130e-01]
 [ 0.00000000e+00  1.01913217e+00 -1.01913217e+00]
 [-7.64349130e-01  2.54783043e-01 -2.54783043e-01]
 [-1.01913217e+00 -4.57282682e-17  4.57282682e-17]
 [ 2.54783043e-01 -2.54783043e-01 -2.54783043e-01]
 [ 5.09566087e-01  0.00000000e+00 -5.09566087e-01]
 [ 7.64349130e-01  2.54783043e-01 -7.64349130e-01]
 [ 5.09566087e-01 -5.09566087e-01  0.00000000e+00]
 [ 7.64349130e-01 -2.54783043e-01 -2.54783043e-01]
 [ 1.01913217e+00  5.55111512e-17 -5.09566087e-01]
 [ 7.64349130e-01 -7.64349130e-01  2.54783043e-01]
 [ 1.01913217e+00 -5.09566087e-01  0.00000000e+00]
 [ 1.27391522e+00 -2.54783043e-01 -2.54783043e-01]
 [-2.28641341e-17 -5.09566087e-01  2.28641341e-17]
 [ 2.54783043e-01 -7.64349130e-01  2.54783043e-01]
 [ 5.09566087e-01 -1.01913217e+00  5.09566087e-01]
 [-2.54783043e-01 -7.64349130e-01  2.54783043e-01]
 [-5.55111512e-17 -1.01913217e+00  5.09566087e-01]
 [ 2.54783043e-01 -1.27391522e+00  7.64349130e-01]
 [-2.28641341e-17  2.28641341e-17 -5.09566087e-01]
 [ 2.54783043e-01  2.54783043e-01 -7.64349130e-01]
 [ 5.09566087e-01  5.09566087e-01 -1.01913217e+00]
 [-2.54783043e-01 -2.54783043e-01 -2.54783043e-01]
 [-5.09566087e-01 -5.09566087e-01  4.57282682e-17]
 [-2.54783043e-01  2.54783043e-01 -7.64349130e-01]
 [-5.55111512e-17  5.09566087e-01 -1.01913217e+00]
 [ 2.54783043e-01  7.64349130e-01 -1.27391522e+00]
 [-5.09566087e-01  3.26470171e-17 -5.09566087e-01]
 [-7.64349130e-01 -2.54783043e-01 -2.54783043e-01]
 [ 5.09566087e-01 -5.09566087e-01 -5.09566087e-01]
 [ 7.64349130e-01 -2.54783043e-01 -7.64349130e-01]
 [ 1.01913217e+00  0.00000000e+00 -1.01913217e+00]
 [ 7.64349130e-01 -7.64349130e-01 -2.54783043e-01]
 [ 1.01913217e+00 -5.09566087e-01 -5.09566087e-01]
 [ 1.27391522e+00 -2.54783043e-01 -7.64349130e-01]
 [ 1.01913217e+00 -1.01913217e+00  0.00000000e+00]
 [ 1.27391522e+00 -7.64349130e-01 -2.54783043e-01]
 [ 1.52869826e+00 -5.09566087e-01 -5.09566087e-01]
 [ 2.54783043e-01 -7.64349130e-01 -2.54783043e-01]
 [ 5.09566087e-01 -1.01913217e+00  0.00000000e+00]
 [ 7.64349130e-01 -1.27391522e+00  2.54783043e-01]
 [-4.57282682e-17 -1.01913217e+00  4.57282682e-17]
 [ 2.54783043e-01 -1.27391522e+00  2.54783043e-01]
 [ 5.09566087e-01 -1.52869826e+00  5.09566087e-01]
 [ 2.54783043e-01 -2.54783043e-01 -7.64349130e-01]
 [ 5.09566087e-01  0.00000000e+00 -1.01913217e+00]
 [ 7.64349130e-01  2.54783043e-01 -1.27391522e+00]
 [-2.28641341e-17 -5.09566087e-01 -5.09566087e-01]
 [-2.54783043e-01 -7.64349130e-01 -2.54783043e-01]
 [-4.57282682e-17  4.57282682e-17 -1.01913217e+00]
 [ 2.54783043e-01  2.54783043e-01 -1.27391522e+00]
 [ 5.09566087e-01  5.09566087e-01 -1.52869826e+00]
 [-2.54783043e-01 -2.54783043e-01 -7.64349130e-01]
 [-5.09566087e-01 -5.09566087e-01 -5.09566087e-01]]
max_memory 699429.44768 (MB)  blocksize 33952885
Cholesky decomposition for j2c at kpt 0
Symmetry pattern (k - [0. 0. 0.])*a= 2n pi
    make_kpt for uniq_kptji_ids [0]
kpt = [0. 0. 0.]
adapted_ji_idx = [  0   2   5   9  14  20  27  35  44  54  65  77  90 104 119 135 152 170
 189 209 230 252 275 299 324 350 377]
memory = 310.325248
int3c2e [1/1], AO [0:30], ncol = 5253
Symmetry pattern (k + [0. 0. 0.])*a= 2n pi
    make_kpt for [0]
Cholesky decomposition for j2c at kpt 1
Symmetry pattern (k - [-0.25478304 -0.25478304  0.25478304])*a= 2n pi
    make_kpt for uniq_kptji_ids [1]
kpt = [-0.25478304 -0.25478304  0.25478304]
adapted_ji_idx = [  1   4  13  19  34  43  64  76 103 118 151 169 208 229 274 298 349 376]
memory = 1284.734976
int3c2e [1/1], AO [0:30], ncol = 10404
Symmetry pattern (k + [-0.25478304 -0.25478304  0.25478304])*a= 2n pi
    make_kpt for [2]
kpt = [-0.50956609 -0.50956609  0.50956609]
adapted_ji_idx = [  3  18  42  75 117 168 228 297 375]
memory = 1417.183232
int3c2e [1/1], AO [0:30], ncol = 10404
Cholesky decomposition for j2c at kpt 3
Symmetry pattern (k - [-0.25478304  0.25478304 -0.25478304])*a= 2n pi
    make_kpt for uniq_kptji_ids [3]
kpt = [-0.25478304  0.25478304 -0.25478304]
adapted_ji_idx = [  6  11  17  24  32  41  87 101 116 132 149 167 249 272 296 321 347 374]
memory = 1462.280192
int3c2e [1/1], AO [0:30], ncol = 10404
Symmetry pattern (k + [-0.25478304  0.25478304 -0.25478304])*a= 2n pi
    make_kpt for [8]
kpt = [-0.50956609  0.50956609 -0.50956609]
adapted_ji_idx = [ 21  29  38 129 146 164 318 344 371]
memory = 1467.092992
int3c2e [1/1], AO [0:30], ncol = 10404
Cholesky decomposition for j2c at kpt 4
Symmetry pattern (k - [ 0.          0.50956609 -0.50956609])*a= 2n pi
    make_kpt for uniq_kptji_ids [4 7]
kpt = [ 0.          0.50956609 -0.50956609]
adapted_ji_idx = [  7  12  25  33  88 102 133 150 250 273 322 348]
memory = 1476.612096
int3c2e [1/1], AO [0:30], ncol = 10404
kpt = [-0.76434913 -0.25478304  0.25478304]
adapted_ji_idx = [ 15  39 114 165 294 372]
memory = 1476.612096
int3c2e [1/1], AO [0:30], ncol = 10404
Symmetry pattern (k + [ 0.          0.50956609 -0.50956609])*a= 2n pi
    make_kpt for [10 11]
kpt = [ 0.          1.01913217 -1.01913217]
adapted_ji_idx = [ 23 131 320]
memory = 1480.679424
int3c2e [1/1], AO [0:30], ncol = 10404
kpt = [-0.76434913  0.25478304 -0.25478304]
adapted_ji_idx = [ 28  37 145 163 343 370]
memory = 1481.940992
int3c2e [1/1], AO [0:30], ncol = 10404
Cholesky decomposition for j2c at kpt 5
Symmetry pattern (k - [ 0.25478304  0.76434913 -0.76434913])*a= 2n pi
    make_kpt for uniq_kptji_ids [5 6]
kpt = [ 0.25478304  0.76434913 -0.76434913]
adapted_ji_idx = [  8  26  89 134 251 323]
memory = 1482.825728
int3c2e [1/1], AO [0:30], ncol = 10404
kpt = [-5.09566087e-01 -2.28641341e-17  2.28641341e-17]
adapted_ji_idx = [ 10  16  31  40 100 115 148 166 271 295 346 373]
memory = 1482.91584
int3c2e [1/1], AO [0:30], ncol = 10404
Symmetry pattern (k + [ 0.25478304  0.76434913 -0.76434913])*a= 2n pi
    make_kpt for [ 9 12]
kpt = [-0.25478304  0.76434913 -0.76434913]
adapted_ji_idx = [ 22  30 130 147 319 345]
memory = 1482.91584
int3c2e [1/1], AO [0:30], ncol = 10404
kpt = [-1.01913217e+00 -4.57282682e-17  4.57282682e-17]
adapted_ji_idx = [ 36 162 369]
memory = 1482.91584
int3c2e [1/1], AO [0:30], ncol = 10404
Cholesky decomposition for j2c at kpt 13
Symmetry pattern (k - [ 0.25478304 -0.25478304 -0.25478304])*a= 2n pi
    make_kpt for uniq_kptji_ids [13]
kpt = [ 0.25478304 -0.25478304 -0.25478304]
adapted_ji_idx = [ 45  56  68  81  95 110 126 143 161 180 200 221 243 266 290 315 341 368]
memory = 1482.121216
int3c2e [1/1], AO [0:30], ncol = 10404
Symmetry pattern (k + [ 0.25478304 -0.25478304 -0.25478304])*a= 2n pi
    make_kpt for [38]
kpt = [ 0.50956609 -0.50956609 -0.50956609]
adapted_ji_idx = [171 191 212 234 257 281 306 332 359]
memory = 1482.555392
int3c2e [1/1], AO [0:30], ncol = 10404
Cholesky decomposition for j2c at kpt 14
Symmetry pattern (k - [ 0.50956609  0.         -0.50956609])*a= 2n pi
    make_kpt for uniq_kptji_ids [14 25]
kpt = [ 0.50956609  0.         -0.50956609]
adapted_ji_idx = [ 46  57  82  96 127 144 181 201 244 267 316 342]
memory = 1483.169792
int3c2e [1/1], AO [0:30], ncol = 10404
kpt = [-0.25478304 -0.76434913  0.25478304]
adapted_ji_idx = [ 66 108 159 219 288 366]
memory = 1483.042816
int3c2e [1/1], AO [0:30], ncol = 10404
Symmetry pattern (k + [ 0.50956609  0.         -0.50956609])*a= 2n pi
    make_kpt for [40 47]
kpt = [ 1.01913217  0.         -1.01913217]
adapted_ji_idx = [173 236 308]
memory = 1483.165696
int3c2e [1/1], AO [0:30], ncol = 10404
kpt = [ 0.25478304 -0.76434913 -0.25478304]
adapted_ji_idx = [190 211 256 280 331 358]
memory = 1482.141696
int3c2e [1/1], AO [0:30], ncol = 10404
Cholesky decomposition for j2c at kpt 15
Symmetry pattern (k - [ 0.76434913  0.25478304 -0.76434913])*a= 2n pi
    make_kpt for uniq_kptji_ids [15 22]
kpt = [ 0.76434913  0.25478304 -0.76434913]
adapted_ji_idx = [ 47  83 128 182 245 317]
memory = 1483.063296
int3c2e [1/1], AO [0:30], ncol = 10404
kpt = [-2.28641341e-17 -5.09566087e-01  2.28641341e-17]
adapted_ji_idx = [ 55  67  94 109 142 160 199 220 265 289 340 367]
memory = 1483.177984
int3c2e [1/1], AO [0:30], ncol = 10404
Symmetry pattern (k + [ 0.76434913  0.25478304 -0.76434913])*a= 2n pi
    make_kpt for [39 50]
kpt = [ 0.76434913 -0.25478304 -0.76434913]
adapted_ji_idx = [172 192 235 258 307 333]
memory = 1483.067392
int3c2e [1/1], AO [0:30], ncol = 10404
kpt = [-4.57282682e-17 -1.01913217e+00  4.57282682e-17]
adapted_ji_idx = [210 279 357]
memory = 1482.797056
int3c2e [1/1], AO [0:30], ncol = 10404
Cholesky decomposition for j2c at kpt 16
Symmetry pattern (k - [ 0.50956609 -0.50956609  0.        ])*a= 2n pi
    make_kpt for uniq_kptji_ids [16 33]
kpt = [ 0.50956609 -0.50956609  0.        ]
adapted_ji_idx = [ 48  59  71  84  98 113 183 203 224 246 269 293]
memory = 1481.924608
int3c2e [1/1], AO [0:30], ncol = 10404
kpt = [-0.25478304  0.25478304 -0.76434913]
adapted_ji_idx = [120 137 155 309 335 362]
memory = 1481.981952
int3c2e [1/1], AO [0:30], ncol = 10404
Symmetry pattern (k + [ 0.50956609 -0.50956609  0.        ])*a= 2n pi
    make_kpt for [44 53]
kpt = [ 1.01913217 -1.01913217  0.        ]
adapted_ji_idx = [177 197 218]
memory = 1481.777152
int3c2e [1/1], AO [0:30], ncol = 10404
kpt = [ 0.25478304 -0.25478304 -0.76434913]
adapted_ji_idx = [231 254 278 303 329 356]
memory = 1481.78944
int3c2e [1/1], AO [0:30], ncol = 10404
Cholesky decomposition for j2c at kpt 17
Symmetry pattern (k - [ 0.76434913 -0.25478304 -0.25478304])*a= 2n pi
    make_kpt for uniq_kptji_ids [17 26 34 37]
kpt = [ 0.76434913 -0.25478304 -0.25478304]
adapted_ji_idx = [ 49  60  85  99 184 204 247 270]
memory = 1481.977856
int3c2e [1/1], AO [0:30], ncol = 10404
kpt = [-5.55111512e-17 -1.01913217e+00  5.09566087e-01]
adapted_ji_idx = [ 69 111 222 291]
memory = 1483.186176
int3c2e [1/1], AO [0:30], ncol = 10404
kpt = [-5.55111512e-17  5.09566087e-01 -1.01913217e+00]
adapted_ji_idx = [121 138 310 336]
memory = 1482.481664
int3c2e [1/1], AO [0:30], ncol = 10404
kpt = [-0.76434913 -0.25478304 -0.25478304]
adapted_ji_idx = [153 360]
memory = 1482.063872
int3c2e [1/1], AO [0:30], ncol = 10404
Symmetry pattern (k + [ 0.76434913 -0.25478304 -0.25478304])*a= 2n pi
    make_kpt for [46 49 55 56]
kpt = [ 1.52869826 -0.50956609 -0.50956609]
adapted_ji_idx = [179]
memory = 1481.33888
int3c2e [1/1], AO [0:30], ncol = 10404
kpt = [ 0.76434913 -1.27391522  0.25478304]
adapted_ji_idx = [196 217]
memory = 1480.76544
int3c2e [1/1], AO [0:30], ncol = 10404
kpt = [ 0.76434913  0.25478304 -1.27391522]
adapted_ji_idx = [233 305]
memory = 1480.310784
int3c2e [1/1], AO [0:30], ncol = 10404
kpt = [-2.28641341e-17 -5.09566087e-01 -5.09566087e-01]
adapted_ji_idx = [253 277 328 355]
memory = 1479.954432
int3c2e [1/1], AO [0:30], ncol = 10404
Cholesky decomposition for j2c at kpt 18
Symmetry pattern (k - [ 1.01913217e+00  5.55111512e-17 -5.09566087e-01])*a= 2n pi
    make_kpt for uniq_kptji_ids [18 23 35 36]
kpt = [ 1.01913217e+00  5.55111512e-17 -5.09566087e-01]
adapted_ji_idx = [ 50  86 185 248]
memory = 1480.630272
int3c2e [1/1], AO [0:30], ncol = 10404
kpt = [ 0.25478304 -0.76434913  0.25478304]
adapted_ji_idx = [ 58  70  97 112 202 223 268 292]
memory = 1481.15456
int3c2e [1/1], AO [0:30], ncol = 10404
kpt = [ 0.25478304  0.76434913 -1.27391522]
adapted_ji_idx = [122 311]
memory = 1481.23648
int3c2e [1/1], AO [0:30], ncol = 10404
kpt = [-5.09566087e-01  3.26470171e-17 -5.09566087e-01]
adapted_ji_idx = [136 154 334 361]
memory = 1480.92928
int3c2e [1/1], AO [0:30], ncol = 10404
Symmetry pattern (k + [ 1.01913217e+00  5.55111512e-17 -5.09566087e-01])*a= 2n pi
    make_kpt for [45 52 54 57]
kpt = [ 1.27391522 -0.76434913 -0.25478304]
adapted_ji_idx = [178 198]
memory = 1481.007104
int3c2e [1/1], AO [0:30], ncol = 10404
kpt = [ 0.50956609 -1.52869826  0.50956609]
adapted_ji_idx = [216]
memory = 1480.699904
int3c2e [1/1], AO [0:30], ncol = 10404
kpt = [ 0.50956609  0.         -1.01913217]
adapted_ji_idx = [232 255 304 330]
memory = 1480.257536
int3c2e [1/1], AO [0:30], ncol = 10404
kpt = [-0.25478304 -0.76434913 -0.25478304]
adapted_ji_idx = [276 354]
memory = 1480.912896
int3c2e [1/1], AO [0:30], ncol = 10404
Cholesky decomposition for j2c at kpt 19
Symmetry pattern (k - [ 0.76434913 -0.76434913  0.25478304])*a= 2n pi
    make_kpt for uniq_kptji_ids [19 28]
kpt = [ 0.76434913 -0.76434913  0.25478304]
adapted_ji_idx = [ 51  62  74 186 206 227]
memory = 1480.552448
int3c2e [1/1], AO [0:30], ncol = 10404
kpt = [-2.28641341e-17  2.28641341e-17 -5.09566087e-01]
adapted_ji_idx = [ 78  92 107 123 140 158 240 263 287 312 338 365]
memory = 1480.851456
int3c2e [1/1], AO [0:30], ncol = 10404
Symmetry pattern (k + [ 0.76434913 -0.76434913  0.25478304])*a= 2n pi
    make_kpt for [41 58]
kpt = [ 0.76434913 -0.76434913 -0.25478304]
adapted_ji_idx = [174 194 215 237 260 284]
memory = 1482.07616
int3c2e [1/1], AO [0:30], ncol = 10404
kpt = [-4.57282682e-17  4.57282682e-17 -1.01913217e+00]
adapted_ji_idx = [300 326 353]
memory = 1483.190272
int3c2e [1/1], AO [0:30], ncol = 10404
Cholesky decomposition for j2c at kpt 20
Symmetry pattern (k - [ 1.01913217 -0.50956609  0.        ])*a= 2n pi
    make_kpt for uniq_kptji_ids [20 27 29 32]
kpt = [ 1.01913217 -0.50956609  0.        ]
adapted_ji_idx = [ 52  63 187 207]
memory = 1483.186176
int3c2e [1/1], AO [0:30], ncol = 10404
kpt = [ 0.25478304 -1.27391522  0.76434913]
adapted_ji_idx = [ 72 225]
memory = 1483.194368
int3c2e [1/1], AO [0:30], ncol = 10404
kpt = [ 0.25478304  0.25478304 -0.76434913]
adapted_ji_idx = [ 79  93 124 141 241 264 313 339]
memory = 1482.104832
int3c2e [1/1], AO [0:30], ncol = 10404
kpt = [-5.09566087e-01 -5.09566087e-01  4.57282682e-17]
adapted_ji_idx = [105 156 285 363]
memory = 1483.145216
int3c2e [1/1], AO [0:30], ncol = 10404
Symmetry pattern (k + [ 1.01913217 -0.50956609  0.        ])*a= 2n pi
    make_kpt for [43 48 60 61]
kpt = [ 1.27391522 -0.25478304 -0.76434913]
adapted_ji_idx = [176 239]
memory = 1483.194368
int3c2e [1/1], AO [0:30], ncol = 10404
kpt = [ 0.50956609 -1.01913217  0.        ]
adapted_ji_idx = [193 214 259 283]
memory = 1482.452992
int3c2e [1/1], AO [0:30], ncol = 10404
kpt = [ 0.50956609  0.50956609 -1.52869826]
adapted_ji_idx = [302]
memory = 1482.727424
int3c2e [1/1], AO [0:30], ncol = 10404
kpt = [-0.25478304 -0.25478304 -0.76434913]
adapted_ji_idx = [325 352]
memory = 1481.560064
int3c2e [1/1], AO [0:30], ncol = 10404
Cholesky decomposition for j2c at kpt 21
Symmetry pattern (k - [ 1.27391522 -0.25478304 -0.25478304])*a= 2n pi
    make_kpt for uniq_kptji_ids [21 24 30 31]
kpt = [ 1.27391522 -0.25478304 -0.25478304]
adapted_ji_idx = [ 53 188]
memory = 1480.777728
int3c2e [1/1], AO [0:30], ncol = 10404
kpt = [ 0.50956609 -1.01913217  0.50956609]
adapted_ji_idx = [ 61  73 205 226]
memory = 1480.372224
int3c2e [1/1], AO [0:30], ncol = 10404
kpt = [ 0.50956609  0.50956609 -1.01913217]
adapted_ji_idx = [ 80 125 242 314]
memory = 1480.675328
int3c2e [1/1], AO [0:30], ncol = 10404
kpt = [-0.25478304 -0.25478304 -0.25478304]
adapted_ji_idx = [ 91 106 139 157 262 286 337 364]
memory = 1483.20256
int3c2e [1/1], AO [0:30], ncol = 10404
Symmetry pattern (k + [ 1.27391522 -0.25478304 -0.25478304])*a= 2n pi
    make_kpt for [42 51 59 62]
kpt = [ 1.01913217 -0.50956609 -0.50956609]
adapted_ji_idx = [175 195 238 261]
memory = 1483.14112
int3c2e [1/1], AO [0:30], ncol = 10404
kpt = [ 0.25478304 -1.27391522  0.25478304]
adapted_ji_idx = [213 282]
memory = 1483.206656
int3c2e [1/1], AO [0:30], ncol = 10404
kpt = [ 0.25478304  0.25478304 -1.27391522]
adapted_ji_idx = [301 327]
memory = 1482.305536
int3c2e [1/1], AO [0:30], ncol = 10404
kpt = [-0.50956609 -0.50956609 -0.50956609]
adapted_ji_idx = [351]
memory = 1482.17856
int3c2e [1/1], AO [0:30], ncol = 10404
    CPU time for j3c  50734.44 sec, wall time   1802.45 sec
    CPU time for Init get_k_kpts  50735.04 sec, wall time   1802.47 sec
    CPU time for get_k_kpts: make_kpt ki>=kj (0,*)      3.20 sec, wall time      0.17 sec
    CPU time for get_k_kpts: make_kpt ki>=kj (1,*)     11.41 sec, wall time      0.37 sec
    CPU time for get_k_kpts: make_kpt ki>=kj (2,*)     10.85 sec, wall time      0.34 sec
    CPU time for get_k_kpts: make_kpt ki>=kj (3,*)     14.38 sec, wall time      0.46 sec
    CPU time for get_k_kpts: make_kpt ki>=kj (4,*)     22.96 sec, wall time      0.72 sec
    CPU time for get_k_kpts: make_kpt ki>=kj (5,*)     26.62 sec, wall time      0.84 sec
    CPU time for get_k_kpts: make_kpt ki>=kj (6,*)     27.74 sec, wall time      0.87 sec
    CPU time for get_k_kpts: make_kpt ki>=kj (7,*)     36.37 sec, wall time      1.14 sec
    CPU time for get_k_kpts: make_kpt ki>=kj (8,*)     36.02 sec, wall time      1.13 sec
    CPU time for get_k_kpts: make_kpt ki>=kj (9,*)     39.96 sec, wall time      1.25 sec
    CPU time for get_k_kpts: make_kpt ki>=kj (10,*)     44.52 sec, wall time      1.40 sec
    CPU time for get_k_kpts: make_kpt ki>=kj (11,*)     51.68 sec, wall time      1.64 sec
    CPU time for get_k_kpts: make_kpt ki>=kj (12,*)     55.99 sec, wall time      1.76 sec
    CPU time for get_k_kpts: make_kpt ki>=kj (13,*)     61.70 sec, wall time      1.94 sec
    CPU time for get_k_kpts: make_kpt ki>=kj (14,*)     68.26 sec, wall time      2.14 sec
    CPU time for get_k_kpts: make_kpt ki>=kj (15,*)     70.02 sec, wall time      2.20 sec
    CPU time for get_k_kpts: make_kpt ki>=kj (16,*)     76.94 sec, wall time      2.42 sec
    CPU time for get_k_kpts: make_kpt ki>=kj (17,*)     80.48 sec, wall time      2.53 sec
    CPU time for get_k_kpts: make_kpt ki>=kj (18,*)     85.06 sec, wall time      2.67 sec
    CPU time for get_k_kpts: make_kpt ki>=kj (19,*)     88.95 sec, wall time      2.79 sec
    CPU time for get_k_kpts: make_kpt ki>=kj (20,*)     93.68 sec, wall time      2.95 sec
    CPU time for get_k_kpts: make_kpt ki>=kj (21,*)     97.36 sec, wall time      3.06 sec
    CPU time for get_k_kpts: make_kpt ki>=kj (22,*)    101.77 sec, wall time      3.20 sec
    CPU time for get_k_kpts: make_kpt ki>=kj (23,*)    105.47 sec, wall time      3.32 sec
    CPU time for get_k_kpts: make_kpt ki>=kj (24,*)    108.22 sec, wall time      3.41 sec
    CPU time for get_k_kpts: make_kpt ki>=kj (25,*)    118.79 sec, wall time      3.73 sec
    CPU time for get_k_kpts: make_kpt ki>=kj (26,*)    118.11 sec, wall time      3.71 sec
Monkhorst pack size [3 3 3] ew_eta 1.7082808598635142 ew_cut 4.117786017015192
Ewald components = 0, -0.963937826851544, 0.870979792219628
    CPU time for get_j pass 1     40.18 sec, wall time      1.49 sec
    CPU time for get_j pass 2      5.50 sec, wall time      1.19 sec
    CPU time for vj and vk  52440.94 sec, wall time   1857.43 sec
Ewald components = 9.00674411881527e-134, -644.974612150364, 572.081161138653
E1 = (-318.4615169888709-1.0634658020458187e-15j)  E_coul = (63.31714178836348-4.1353478640398034e-16j)
init E= -328.037826212219
cond(S) = [ 2094896.66896862  3839165.50689028  3839165.50602596  3839165.50673964
  2222675.60397513 14046774.07086453  3839165.50588585 14046774.06733708
  2222675.6039603   3839165.50425935  2222675.60405597 14046774.04592468
  2222675.60393491  3839165.50627531 14046774.07630848 14046774.0533427
 14046774.07185112 14046774.05153072  3839165.50415687 14046774.0490877
  2222675.60396245 14046774.05235792 14046774.04527682 14046774.06684284
  2222675.60406658 14046774.0599392   3839165.50649602]
    CPU time for initialize scf  53181.92 sec, wall time   1881.23 sec
HOMO = 0.472888559618  LUMO = 0.624816396147
     k-point                  mo_energy
   0 ( 0.000  0.000  0.000)   [-68.06562838 -10.69345802  -5.49632147  -3.57079322  -3.57075634
  -3.57075634  -1.23395346   0.47285893   0.47288856   0.47288856] [ 0.70336515  0.87134634  0.87134634  0.87150759  1.20611632  1.20611632
  1.26426026  1.30757677  1.30757677  1.30761904  1.59647155  1.9983137
  1.99840934  1.99840934  2.29162784  2.2917093   2.2917093   2.38815343
  2.38815343  2.53426345  2.53426345  2.53432593  3.00278483  3.00285039
  3.0028504   3.13145429  3.13147662  3.13147662  3.13288607  3.13288607
  3.21618553  3.43670019  3.43671672  3.43671672  3.45676666  4.00104927
  4.00104927  4.00106798  4.3147527   4.3147527   4.31484618  4.40276734
  4.73142079  4.731522    4.731522    4.78443741  4.78443741  5.22485344
  5.22492574  5.22492574  5.24055527  6.04335082  6.04337566  6.04337567
  7.41653135  7.41653135  7.64244155  7.64246185  7.64246185 11.38712121
 12.72760968 12.72764214 12.72764215 17.51833301 17.54848818 17.54853542
 17.54853542 23.72274263 23.72274263 23.72275893 23.74509432 23.74509432
 23.74509594 23.78638847 28.96177193 28.96177193 29.06690898 29.06692277
 29.06692277 42.17080278 42.17080278 42.29601557 42.29602825 42.29602825
 43.09213936 43.09214754 43.09214754 60.02232658 82.79027205 82.79028632
 82.79028632 86.95185875]
   1 ( 0.000  0.000  0.333)   [-6.80656101e+01 -1.06918642e+01 -5.49096699e+00 -3.57286047e+00
 -3.57096445e+00 -3.57092792e+00 -8.48638255e-01  1.94042560e-02
  4.22164884e-01  4.22244341e-01] [ 0.7295837   0.89081397  0.89099381  0.97304494  1.19114559  1.19116213
  1.20188285  1.54292825  1.57624435  1.57627025  1.75841292  1.81476607
  1.81477395  1.97971192  2.11129111  2.11137315  2.25599606  2.37746605
  2.37749404  2.55804576  2.5580621   2.60932091  2.73534639  2.83471754
  2.834785    2.88246382  2.88246384  2.92636859  3.12942918  3.2154465
  3.21548188  3.41151519  3.56620382  3.56622597  3.63700235  4.06505728
  4.06508626  4.0758817   4.11563252  4.33699685  4.40042248  4.40048032
  4.56097198  4.5610151   4.76862966  4.88238414  4.88243028  5.11866777
  5.19810004  5.19813739  5.39134929  5.39138245  5.63269775  6.10076716
  7.49906571  7.49907065  7.71066459  7.7106897   7.87202737 11.87397098
 12.22355846 12.22359284 12.25645174 17.00465892 17.38708198 17.38712353
 18.78935634 23.722389   23.72838753 23.72839309 23.74139084 23.74453481
 23.74454207 23.76339305 28.99505627 28.99505785 29.10987897 29.10989278
 29.1507748  42.14611018 42.14611697 42.17646044 42.2332775  42.23328237
 42.37818497 42.42772527 42.4277333  61.15105965 82.43370336 82.68121266
 82.68122526 89.0193315 ]
   2 ( 0.000  0.000  0.667)   [-6.80656101e+01 -1.06918642e+01 -5.49096699e+00 -3.57286047e+00
 -3.57096445e+00 -3.57092792e+00 -8.48638255e-01  1.94042560e-02
  4.22164884e-01  4.22244341e-01] [ 0.7295837   0.89081397  0.89099381  0.97304494  1.19114559  1.19116213
  1.20188285  1.54292825  1.57624435  1.57627025  1.75841292  1.81476607
  1.81477395  1.97971192  2.11129111  2.11137315  2.25599606  2.37746605
  2.37749404  2.55804576  2.5580621   2.60932091  2.73534639  2.83471754
  2.834785    2.88246382  2.88246384  2.92636859  3.12942918  3.2154465
  3.21548188  3.4115152   3.56620377  3.56622599  3.63700235  4.06505726
  4.06508627  4.0758817   4.11563252  4.33699685  4.40042248  4.40048032
  4.56097197  4.5610151   4.76862966  4.88238413  4.88243029  5.11866777
  5.19810004  5.19813739  5.39134928  5.39138246  5.63269775  6.10076716
  7.49906571  7.49907065  7.71066458  7.7106897   7.87202737 11.87397098
 12.22355846 12.22359284 12.25645174 17.00465892 17.38708198 17.38712353
 18.78935634 23.722389   23.72838753 23.72839309 23.74139084 23.74453481
 23.74454207 23.76339305 28.99505627 28.99505785 29.10987897 29.10989278
 29.1507748  42.14611018 42.14611697 42.17646044 42.2332775  42.23328237
 42.37818497 42.42772527 42.4277333  61.15105965 82.43370336 82.68121266
 82.68122526 89.0193315 ]
   3 (-0.000  0.333  0.000)   [-6.80656101e+01 -1.06918642e+01 -5.49096699e+00 -3.57286047e+00
 -3.57096445e+00 -3.57092792e+00 -8.48638255e-01  1.94042560e-02
  4.22164884e-01  4.22244341e-01] [ 0.7295837   0.89081397  0.89099381  0.97304494  1.19114559  1.19116213
  1.20188285  1.54292825  1.57624435  1.57627025  1.75841291  1.81476607
  1.81477395  1.97971191  2.11129112  2.11137314  2.25599605  2.37746606
  2.37749404  2.55804576  2.5580621   2.60932091  2.73534637  2.83471756
  2.834785    2.88246382  2.88246384  2.92636859  3.12942917  3.21544651
  3.21548188  3.41151518  3.5662041   3.56622574  3.63700234  4.06505735
  4.06508619  4.0758817   4.11563252  4.33699685  4.40042251  4.4004803
  4.56097197  4.5610151   4.76862965  4.88238418  4.88243025  5.11866776
  5.19810011  5.19813737  5.39134935  5.3913824   5.63269774  6.10076713
  7.4990657   7.49907067  7.71066462  7.71068967  7.87202736 11.87397098
 12.22355847 12.22359284 12.25645173 17.00465892 17.38708198 17.38712353
 18.78935633 23.722389   23.72838753 23.72839309 23.74139084 23.74453481
 23.74454207 23.76339305 28.99505627 28.99505785 29.10987897 29.10989278
 29.1507748  42.14611018 42.14611697 42.17646044 42.2332775  42.23328237
 42.37818497 42.42772527 42.4277333  61.15105965 82.43370336 82.68121266
 82.68122526 89.0193315 ]
   4 (-0.000  0.333  0.333)   [-68.0656062  -10.69141467  -5.48975795  -3.57266761  -3.57126634
  -3.57123515  -0.73613904   0.10405186   0.31215915   0.31235122] [ 0.6248164   0.752336    1.09327537  1.09328048  1.09764545  1.34209007
  1.52586807  1.53170654  1.53171345  1.60624703  1.68361526  1.68361971
  1.78377508  1.8154456   2.15207459  2.15210715  2.19460138  2.29496007
  2.34228305  2.41111555  2.51295488  2.51297354  2.73105063  2.86726833
  2.87543813  2.87547663  2.92208583  3.11887431  3.20724006  3.20725306
  3.23129234  3.23133356  3.23573817  3.39620785  3.93279916  3.99894985
  3.99897755  4.1951515   4.37541777  4.37548041  4.40567081  4.41052694
  4.55311627  4.5531331   4.88610994  4.9590439   5.00613011  5.23784909
  5.2429208   5.24295631  5.33631868  5.33638538  5.48674983  5.67131512
  7.44022026  7.57887106  7.73181867  7.84934069  7.8493597  11.96672467
 12.15033882 12.1503646  12.38351099 17.10067422 17.51041856 17.51044884
 18.4359103  23.72449905 23.72796826 23.72797523 23.7328204  23.74589585
 23.74589883 23.74791829 28.9818559  29.00873419 29.07809687 29.1788913
 29.17890081 42.16823092 42.17091137 42.17091931 42.18093449 42.26353943
 42.30815279 42.30815974 42.51819856 61.11753724 82.48765711 82.77293135
 82.77294068 88.56811248]
   5 ( 0.000  0.333  0.667)   [-6.80655894e+01 -1.06905985e+01 -5.48729684e+00 -3.57255090e+00
 -3.57193179e+00 -3.57120321e+00 -4.59780992e-01 -5.08527809e-02
  8.15953299e-02  3.40256453e-01] [ 0.69010134  0.93679387  1.03221945  1.04559828  1.12072597  1.20407695
  1.50655759  1.52040887  1.66532231  1.66758431  1.76784419  1.79868705
  1.85274263  1.95537967  2.00827724  2.15842611  2.17179757  2.24146986
  2.3333103   2.36854756  2.46507905  2.4671514   2.6216001   2.6728464
  2.86372886  2.8848354   2.9285276   2.94568893  2.96952609  3.16392391
  3.29400541  3.58732558  3.69425404  3.69986072  3.83893344  3.9776688
  4.03318804  4.1929465   4.21521743  4.36317724  4.44565679  4.52501338
  4.62707903  4.77889829  4.82359707  4.86215673  4.94278578  5.03130231
  5.10249427  5.23174203  5.47107691  5.50158619  5.93721929  6.17979662
  7.34696196  7.37156041  7.72127313  7.73598084  8.08585273 11.88475491
 12.1764894  12.31830194 12.36641348 17.00410314 17.33256879 17.53364791
 18.36132507 23.72335217 23.72365083 23.73374257 23.73406602 23.74815253
 23.75395799 23.7652088  28.92191531 28.92788551 29.08361276 29.1342326
 29.31305539 42.16102663 42.1615466  42.18536367 42.19942043 42.23779311
 42.31626116 42.48359481 42.51816586 61.04435813 82.40992473 82.64164515
 82.7901477  88.33175335]
   6 (-0.000  0.667  0.000)   [-6.80656101e+01 -1.06918642e+01 -5.49096699e+00 -3.57286047e+00
 -3.57096445e+00 -3.57092792e+00 -8.48638255e-01  1.94042560e-02
  4.22164884e-01  4.22244341e-01] [ 0.7295837   0.89081397  0.89099381  0.97304494  1.19114559  1.19116213
  1.20188285  1.54292825  1.57624435  1.57627025  1.75841292  1.81476607
  1.81477395  1.97971191  2.11129112  2.11137314  2.25599605  2.37746606
  2.37749403  2.55804576  2.5580621   2.60932091  2.73534637  2.83471756
  2.834785    2.88246382  2.88246384  2.92636859  3.12942917  3.21544651
  3.21548188  3.4115152   3.5662041   3.56622572  3.63700234  4.06505735
  4.06508618  4.0758817   4.11563252  4.33699685  4.40042251  4.40048029
  4.56097197  4.5610151   4.76862965  4.88238418  4.88243025  5.11866777
  5.19810011  5.19813737  5.39134935  5.39138239  5.63269775  6.10076712
  7.49906569  7.49907067  7.71066462  7.71068967  7.87202736 11.87397098
 12.22355847 12.22359284 12.25645173 17.00465892 17.38708198 17.38712353
 18.78935633 23.722389   23.72838753 23.72839309 23.74139084 23.74453481
 23.74454207 23.76339305 28.99505627 28.99505785 29.10987897 29.10989278
 29.1507748  42.14611018 42.14611697 42.17646044 42.2332775  42.23328237
 42.37818497 42.42772527 42.4277333  61.15105965 82.43370336 82.68121266
 82.68122526 89.0193315 ]
   7 (-0.000  0.667  0.333)   [-6.80655894e+01 -1.06905985e+01 -5.48729684e+00 -3.57255090e+00
 -3.57193179e+00 -3.57120321e+00 -4.59780992e-01 -5.08527809e-02
  8.15953299e-02  3.40256453e-01] [ 0.69010134  0.93679387  1.03221945  1.04559828  1.12072597  1.20407695
  1.50655759  1.52040887  1.66532231  1.66758431  1.76784419  1.79868705
  1.85274263  1.95537967  2.00827724  2.15842611  2.17179756  2.24146986
  2.33331029  2.36854756  2.46507904  2.46715141  2.62160011  2.6728464
  2.86372887  2.88483539  2.9285276   2.94568893  2.96952611  3.16392392
  3.29400541  3.5873256   3.69425385  3.69986075  3.83893349  3.97766879
  4.03318805  4.1929465   4.21521737  4.36317724  4.44565679  4.52501339
  4.62707907  4.77889824  4.82359708  4.86215674  4.94278577  5.03130231
  5.10249428  5.23174204  5.47107671  5.50158624  5.9372193   6.179797
  7.34696196  7.37156041  7.72127313  7.73598084  8.08585273 11.88475491
 12.1764894  12.31830194 12.36641347 17.00410314 17.33256879 17.53364792
 18.36132507 23.72335217 23.72365083 23.73374257 23.73406602 23.74815253
 23.75395799 23.7652088  28.92191531 28.92788551 29.08361276 29.1342326
 29.31305539 42.16102663 42.1615466  42.18536367 42.19942043 42.23779311
 42.31626116 42.48359481 42.51816585 61.04435813 82.40992473 82.64164515
 82.7901477  88.33175335]
   8 (-0.000  0.667  0.667)   [-68.0656062  -10.69141467  -5.48975795  -3.57266761  -3.57126634
  -3.57123515  -0.73613904   0.10405186   0.31215915   0.31235122] [ 0.6248164   0.752336    1.09327537  1.09328048  1.09764545  1.34209007
  1.52586807  1.53170654  1.53171345  1.60624703  1.68361526  1.68361971
  1.78377508  1.8154456   2.15207459  2.15210715  2.19460138  2.29496007
  2.34228305  2.41111555  2.51295488  2.51297353  2.73105063  2.86726833
  2.87543813  2.87547663  2.92208583  3.11887431  3.20724006  3.20725306
  3.23129234  3.23133356  3.23573817  3.39620784  3.93279917  3.99894985
  3.99897754  4.1951515   4.37541777  4.37548041  4.40567081  4.41052694
  4.55311627  4.5531331   4.88610994  4.9590439   5.00613011  5.23784909
  5.2429208   5.24295631  5.33631867  5.33638538  5.48674983  5.67131512
  7.44022026  7.57887106  7.73181867  7.84934069  7.8493597  11.96672468
 12.15033882 12.1503646  12.38351099 17.10067422 17.51041856 17.51044884
 18.4359103  23.72449905 23.72796826 23.72797523 23.7328204  23.74589585
 23.74589883 23.74791829 28.9818559  29.00873419 29.07809687 29.1788913
 29.17890081 42.16823092 42.17091137 42.17091931 42.18093449 42.26353943
 42.30815279 42.30815974 42.51819856 61.11753724 82.48765711 82.77293135
 82.77294068 88.56811248]
   9 ( 0.333 -0.000 -0.000)   [-6.80656101e+01 -1.06918642e+01 -5.49096699e+00 -3.57286047e+00
 -3.57096445e+00 -3.57092792e+00 -8.48638255e-01  1.94042560e-02
  4.22164884e-01  4.22244341e-01] [ 0.7295837   0.89081397  0.89099381  0.97304494  1.19114559  1.19116213
  1.20188285  1.54292825  1.57624435  1.57627025  1.75841292  1.81476607
  1.81477395  1.97971191  2.11129112  2.11137315  2.25599606  2.37746606
  2.37749404  2.55804576  2.5580621   2.60932091  2.73534638  2.83471757
  2.83478502  2.88246382  2.88246384  2.92636859  3.12942918  3.21544651
  3.21548189  3.41151517  3.56620406  3.56622621  3.63700235  4.06505735
  4.06508633  4.0758817   4.11563252  4.33699685  4.40042251  4.40048035
  4.56097197  4.5610151   4.76862965  4.88238417  4.88243032  5.11866777
  5.19810013  5.19813744  5.39134934  5.3913825   5.63269774  6.10076713
  7.49906573  7.49907067  7.71066461  7.71068972  7.87202736 11.87397097
 12.22355847 12.22359284 12.25645173 17.00465892 17.38708198 17.38712353
 18.78935633 23.722389   23.72838753 23.72839309 23.74139084 23.74453481
 23.74454207 23.76339305 28.99505627 28.99505785 29.10987897 29.10989278
 29.1507748  42.14611018 42.14611697 42.17646044 42.2332775  42.23328237
 42.37818497 42.42772527 42.4277333  61.15105965 82.43370336 82.68121266
 82.68122526 89.0193315 ]
  10 ( 0.333 -0.000  0.333)   [-68.0656062  -10.69141467  -5.48975795  -3.57266761  -3.57126634
  -3.57123515  -0.73613904   0.10405186   0.31215915   0.31235122] [ 0.6248164   0.752336    1.09327537  1.09328048  1.09764545  1.34209007
  1.52586807  1.53170654  1.53171345  1.60624703  1.68361526  1.68361971
  1.78377508  1.8154456   2.15207459  2.15210715  2.19460138  2.29496006
  2.34228305  2.41111555  2.51295488  2.51297354  2.73105063  2.86726833
  2.87543813  2.87547663  2.92208583  3.1188743   3.20724007  3.20725307
  3.23129234  3.23133356  3.23573817  3.39620784  3.93279913  3.99894985
  3.99897755  4.1951515   4.37541777  4.37548041  4.40567081  4.41052695
  4.55311627  4.55313311  4.88610994  4.9590439   5.00613011  5.23784909
  5.2429208   5.24295631  5.33631868  5.33638538  5.48674983  5.67131509
  7.44022026  7.57887106  7.73181867  7.8493407   7.8493597  11.96672467
 12.15033882 12.1503646  12.38351099 17.10067422 17.51041856 17.51044884
 18.4359103  23.72449905 23.72796826 23.72797523 23.7328204  23.74589585
 23.74589883 23.74791829 28.9818559  29.00873419 29.07809687 29.1788913
 29.17890081 42.16823092 42.17091137 42.17091931 42.18093449 42.26353943
 42.30815279 42.30815974 42.51819856 61.11753724 82.48765711 82.77293135
 82.77294068 88.56811248]
  11 ( 0.333  0.000  0.667)   [-6.80655894e+01 -1.06905985e+01 -5.48729684e+00 -3.57255090e+00
 -3.57193179e+00 -3.57120321e+00 -4.59780992e-01 -5.08527809e-02
  8.15953299e-02  3.40256453e-01] [ 0.69010134  0.93679387  1.03221945  1.04559828  1.12072597  1.20407695
  1.50655759  1.52040886  1.66532231  1.66758431  1.76784419  1.79868705
  1.85274263  1.95537967  2.00827725  2.1584261   2.17179757  2.24146986
  2.3333103   2.36854757  2.46507905  2.46715142  2.62160012  2.67284641
  2.86372889  2.88483541  2.9285276   2.94568894  2.96952615  3.16392391
  3.29400541  3.58732557  3.6942542   3.69986079  3.83893357  3.97766881
  4.03318805  4.1929465   4.21521749  4.36317724  4.44565679  4.52501341
  4.62707908  4.77889831  4.82359708  4.86215676  4.94278578  5.03130231
  5.10249432  5.23174211  5.47107706  5.5015864   5.93721935  6.17979656
  7.34696196  7.37156041  7.72127313  7.73598085  8.08585273 11.88475491
 12.1764894  12.31830194 12.36641348 17.00410314 17.3325688  17.53364789
 18.36132507 23.72335217 23.72365083 23.73374257 23.73406602 23.74815253
 23.75395799 23.7652088  28.92191531 28.92788551 29.08361276 29.1342326
 29.31305539 42.16102663 42.1615466  42.18536367 42.19942043 42.23779311
 42.31626116 42.48359481 42.51816586 61.04435813 82.40992473 82.64164515
 82.7901477  88.33175335]
  12 ( 0.333  0.333 -0.000)   [-68.0656062  -10.69141467  -5.48975795  -3.57266761  -3.57126634
  -3.57123515  -0.73613904   0.10405186   0.31215915   0.31235122] [ 0.6248164   0.752336    1.09327537  1.09328048  1.09764545  1.34209007
  1.52586807  1.53170654  1.53171345  1.60624703  1.68361526  1.68361971
  1.78377508  1.8154456   2.15207459  2.15210715  2.19460138  2.29496008
  2.34228306  2.41111554  2.51295488  2.51297353  2.73105063  2.86726833
  2.87543813  2.87547663  2.92208583  3.11887434  3.20724004  3.20725304
  3.23129233  3.23133356  3.23573817  3.39620782  3.93279924  3.99894984
  3.99897754  4.19515152  4.37541775  4.37548039  4.40567081  4.41052694
  4.55311627  4.5531331   4.88610994  4.95904389  5.00613015  5.23784909
  5.24292078  5.24295629  5.33631866  5.33638537  5.48674984  5.67131512
  7.44022026  7.57887105  7.73181867  7.84934069  7.8493597  11.96672471
 12.15033882 12.1503646  12.38351099 17.10067422 17.51041855 17.51044884
 18.43591029 23.72449905 23.72796826 23.72797523 23.7328204  23.74589585
 23.74589883 23.74791829 28.9818559  29.00873419 29.07809687 29.1788913
 29.1789008  42.16823092 42.17091137 42.17091931 42.18093449 42.26353943
 42.30815279 42.30815974 42.51819856 61.11753725 82.48765711 82.77293135
 82.77294068 88.56811247]
  13 ( 0.333  0.333  0.333)   [-6.80656104e+01 -1.06918575e+01 -5.49099246e+00 -3.57289615e+00
 -3.57092609e+00 -3.57092609e+00 -8.47589458e-01  1.92694659e-02
  4.22340058e-01  4.22340058e-01] [ 0.72959895  0.8909264   0.8909264   0.97300791  1.19108862  1.19108862
  1.20189034  1.54292337  1.57628712  1.57628712  1.75844275  1.81474757
  1.81474757  1.97972541  2.11135278  2.11135279  2.25597395  2.37751818
  2.37751818  2.5580659   2.5580659   2.6093847   2.73527401  2.83473542
  2.83473545  2.88247232  2.88247232  2.92632283  3.12940097  3.21546012
  3.21546013  3.41152528  3.56623692  3.56623733  3.63702106  4.06505569
  4.06505581  4.07595123  4.11566073  4.33693583  4.40044531  4.40044535
  4.56101589  4.56101589  4.76859542  4.88238322  4.88238328  5.11865009
  5.1981371   5.19813718  5.39140919  5.39140928  5.63267239  6.10071993
  7.499085    7.49908503  7.71067695  7.710677    7.87200199 11.8740001
 12.22359344 12.22359345 12.25638701 17.00462105 17.38712354 17.38712354
 18.78934571 23.72240349 23.72838557 23.72838557 23.7413838  23.7445352
 23.7445352  23.76340164 28.99506551 28.99506551 29.10988395 29.10988396
 29.15076214 42.14611057 42.14611057 42.17645033 42.23328914 42.23328914
 42.37817567 42.42773337 42.42773338 61.1510591  82.4336908  82.68122523
 82.68122523 89.01933027]
  14 ( 0.333  0.333  0.667)   [-6.80655894e+01 -1.06905978e+01 -5.48731387e+00 -3.57256581e+00
 -3.57194378e+00 -3.57117173e+00 -4.59456388e-01 -5.05562734e-02
  8.14651736e-02  3.40432382e-01] [ 0.69018425  0.93668511  1.03218968  1.04560052  1.12073381  1.20404639
  1.50655905  1.52045164  1.66536686  1.66756698  1.76780505  1.79870667
  1.85273493  1.95534624  2.00827805  2.15841282  2.17178621  2.24146721
  2.33332029  2.36857536  2.46510664  2.46718049  2.62158724  2.67283313
  2.86373202  2.8848804   2.92853838  2.94569731  2.96949876  3.16389998
  3.29402605  3.58729601  3.69428332  3.69986959  3.83892555  3.97769323
  4.03314518  4.19289605  4.21521628  4.36319349  4.44566381  4.52498275
  4.6270807   4.77897458  4.82357638  4.86217472  4.94280439  5.03132988
  5.10248525  5.23171133  5.47111408  5.50158019  5.93718264  6.17979209
  7.34696073  7.37156616  7.72126864  7.73600121  8.08583146 11.8847315
 12.17649768 12.31829036 12.36643889 17.00408105 17.33259901 17.53364104
 18.3613179  23.72336244 23.72364258 23.73374367 23.73406557 23.74815164
 23.75395631 23.76520875 28.9219153  28.92788911 29.08360867 29.13424201
 29.31304608 42.16103175 42.16153899 42.18535697 42.1994238  42.23779813
 42.31626263 42.48358773 42.51817231 61.04435786 82.40991788 82.64165446
 82.79014493 88.33175291]
  15 ( 0.333  0.667  0.000)   [-6.80655894e+01 -1.06905985e+01 -5.48729684e+00 -3.57255090e+00
 -3.57193179e+00 -3.57120321e+00 -4.59780992e-01 -5.08527809e-02
  8.15953299e-02  3.40256453e-01] [ 0.69010134  0.93679387  1.03221945  1.04559828  1.12072597  1.20407695
  1.50655759  1.52040887  1.66532231  1.66758431  1.76784419  1.79868705
  1.85274263  1.95537967  2.00827724  2.15842611  2.17179757  2.24146986
  2.33331029  2.36854757  2.46507905  2.46715142  2.62160013  2.67284641
  2.8637289   2.8848354   2.92852761  2.94568893  2.96952617  3.16392392
  3.29400541  3.58732566  3.69425394  3.69986085  3.83893366  3.9776688
  4.03318807  4.1929465   4.2152174   4.36317724  4.44565679  4.52501343
  4.62707913  4.77889827  4.8235971   4.86215677  4.94278578  5.03130231
  5.10249434  5.23174215  5.47107681  5.50158647  5.9372194   6.17979737
  7.34696196  7.37156042  7.72127313  7.73598084  8.08585275 11.88475491
 12.1764894  12.31830194 12.36641347 17.00410314 17.33256879 17.53364793
 18.36132508 23.72335217 23.72365083 23.73374257 23.73406602 23.74815253
 23.75395799 23.7652088  28.92191531 28.92788551 29.08361277 29.1342326
 29.31305539 42.16102663 42.16154661 42.18536367 42.19942043 42.23779311
 42.31626116 42.48359481 42.51816585 61.04435813 82.40992473 82.64164515
 82.7901477  88.33175335]
  16 ( 0.333  0.667  0.333)   [-6.80655894e+01 -1.06905978e+01 -5.48731387e+00 -3.57256581e+00
 -3.57194378e+00 -3.57117173e+00 -4.59456388e-01 -5.05562734e-02
  8.14651736e-02  3.40432382e-01] [ 0.69018425  0.93668511  1.03218968  1.04560052  1.12073381  1.20404639
  1.50655905  1.52045164  1.66536686  1.66756698  1.76780505  1.79870667
  1.85273493  1.95534624  2.00827805  2.15841282  2.17178621  2.24146722
  2.33332027  2.36857536  2.46510663  2.46718051  2.62158727  2.67283315
  2.86373207  2.88488038  2.92853839  2.9456973   2.96949883  3.16389999
  3.29402605  3.58729605  3.69428304  3.69986974  3.83892575  3.97769321
  4.03314521  4.19289605  4.21521619  4.3631935   4.44566381  4.52498279
  4.62708083  4.77897451  4.8235764   4.86217477  4.94280438  5.03132987
  5.10248532  5.23171142  5.47111377  5.50158044  5.93718279  6.17979274
  7.34696073  7.37156616  7.72126865  7.73600121  8.08583147 11.8847315
 12.17649768 12.31829037 12.36643888 17.00408105 17.33259901 17.53364106
 18.36131791 23.72336244 23.72364258 23.73374367 23.73406556 23.74815164
 23.75395631 23.76520875 28.9219153  28.92788911 29.08360867 29.13424201
 29.31304608 42.16103175 42.16153899 42.18535697 42.1994238  42.23779813
 42.31626263 42.48358773 42.51817231 61.04435786 82.40991788 82.64165446
 82.79014493 88.33175291]
  17 ( 0.333  0.667  0.667)   [-6.80655894e+01 -1.06905978e+01 -5.48731387e+00 -3.57256581e+00
 -3.57194378e+00 -3.57117173e+00 -4.59456388e-01 -5.05562734e-02
  8.14651736e-02  3.40432382e-01] [ 0.69018425  0.93668511  1.03218968  1.04560052  1.12073381  1.20404639
  1.50655905  1.52045164  1.66536686  1.66756698  1.76780505  1.79870667
  1.85273493  1.95534624  2.00827805  2.15841282  2.17178621  2.24146721
  2.33332027  2.36857536  2.46510663  2.4671805   2.62158724  2.67283314
  2.86373203  2.88488038  2.92853838  2.9456973   2.96949877  3.16389999
  3.29402605  3.587296    3.69428301  3.69986961  3.83892557  3.97769321
  4.03314518  4.19289605  4.21521618  4.36319349  4.44566381  4.52498275
  4.62708074  4.7789745   4.82357639  4.86217473  4.94280438  5.03132987
  5.10248525  5.23171133  5.47111375  5.50158022  5.93718263  6.17979238
  7.34696073  7.37156616  7.72126865  7.73600121  8.08583146 11.8847315
 12.17649768 12.31829037 12.36643888 17.00408105 17.33259901 17.53364105
 18.3613179  23.72336244 23.72364258 23.73374367 23.73406556 23.74815164
 23.75395631 23.76520875 28.9219153  28.92788911 29.08360867 29.13424201
 29.31304608 42.16103175 42.16153899 42.18535697 42.1994238  42.23779813
 42.31626263 42.48358773 42.51817231 61.04435786 82.40991788 82.64165446
 82.79014493 88.33175291]
  18 ( 0.667 -0.000 -0.000)   [-6.80656101e+01 -1.06918642e+01 -5.49096699e+00 -3.57286047e+00
 -3.57096445e+00 -3.57092792e+00 -8.48638255e-01  1.94042560e-02
  4.22164884e-01  4.22244341e-01] [ 0.7295837   0.89081397  0.89099381  0.97304494  1.19114559  1.19116213
  1.20188285  1.54292825  1.57624435  1.57627025  1.75841292  1.81476607
  1.81477395  1.97971191  2.11129112  2.11137315  2.25599606  2.37746606
  2.37749404  2.55804576  2.5580621   2.60932091  2.73534638  2.83471757
  2.83478501  2.88246382  2.88246384  2.92636859  3.12942918  3.21544651
  3.21548188  3.41151517  3.56620414  3.56622614  3.63700235  4.06505737
  4.06508631  4.0758817   4.11563252  4.33699685  4.40042252  4.40048034
  4.56097197  4.5610151   4.76862965  4.88238418  4.88243031  5.11866777
  5.19810014  5.19813742  5.39134936  5.39138249  5.63269774  6.10076712
  7.49906572  7.49907067  7.71066462  7.71068972  7.87202736 11.87397097
 12.22355847 12.22359284 12.25645173 17.00465892 17.38708198 17.38712353
 18.78935633 23.722389   23.72838753 23.72839309 23.74139084 23.74453481
 23.74454207 23.76339305 28.99505627 28.99505785 29.10987897 29.10989278
 29.1507748  42.14611018 42.14611697 42.17646044 42.2332775  42.23328237
 42.37818497 42.42772527 42.4277333  61.15105965 82.43370336 82.68121266
 82.68122526 89.0193315 ]
  19 ( 0.667 -0.000  0.333)   [-6.80655894e+01 -1.06905985e+01 -5.48729684e+00 -3.57255090e+00
 -3.57193179e+00 -3.57120321e+00 -4.59780992e-01 -5.08527809e-02
  8.15953299e-02  3.40256453e-01] [ 0.69010134  0.93679387  1.03221945  1.04559828  1.12072597  1.20407695
  1.50655759  1.52040886  1.66532231  1.66758431  1.76784419  1.79868705
  1.85274263  1.95537967  2.00827725  2.1584261   2.17179757  2.24146986
  2.3333103   2.36854757  2.46507905  2.46715142  2.62160013  2.6728464
  2.86372889  2.88483541  2.9285276   2.94568894  2.96952615  3.1639239
  3.29400541  3.58732555  3.69425419  3.69986077  3.83893356  3.97766881
  4.03318805  4.19294649  4.21521749  4.36317723  4.44565679  4.52501342
  4.62707906  4.77889831  4.82359708  4.86215675  4.94278578  5.03130231
  5.10249432  5.23174212  5.47107707  5.50158641  5.93721935  6.17979632
  7.34696196  7.37156041  7.72127313  7.73598085  8.08585273 11.88475491
 12.1764894  12.31830194 12.36641348 17.00410314 17.3325688  17.53364788
 18.36132507 23.72335217 23.72365083 23.73374257 23.73406602 23.74815253
 23.75395799 23.7652088  28.92191531 28.92788551 29.08361276 29.1342326
 29.31305539 42.16102663 42.1615466  42.18536367 42.19942043 42.2377931
 42.31626116 42.48359481 42.51816586 61.04435813 82.40992473 82.64164515
 82.79014769 88.33175335]
  20 ( 0.667 -0.000  0.667)   [-68.0656062  -10.69141467  -5.48975795  -3.57266761  -3.57126634
  -3.57123515  -0.73613904   0.10405186   0.31215915   0.31235122] [ 0.6248164   0.752336    1.09327537  1.09328048  1.09764545  1.34209007
  1.52586807  1.53170654  1.53171345  1.60624703  1.68361526  1.68361971
  1.78377508  1.8154456   2.15207459  2.15210715  2.19460138  2.29496006
  2.34228305  2.41111555  2.51295488  2.51297354  2.73105063  2.86726833
  2.87543813  2.87547663  2.92208583  3.1188743   3.20724006  3.20725307
  3.23129234  3.23133356  3.23573817  3.39620784  3.93279912  3.99894985
  3.99897755  4.1951515   4.37541777  4.37548041  4.40567081  4.41052694
  4.55311627  4.55313311  4.88610994  4.9590439   5.00613011  5.23784909
  5.2429208   5.24295631  5.33631868  5.33638538  5.48674983  5.67131507
  7.44022026  7.57887106  7.73181867  7.84934069  7.8493597  11.96672467
 12.15033882 12.1503646  12.38351099 17.10067422 17.51041856 17.51044884
 18.4359103  23.72449905 23.72796826 23.72797523 23.7328204  23.74589585
 23.74589883 23.74791829 28.9818559  29.00873419 29.07809687 29.1788913
 29.17890081 42.16823092 42.17091137 42.17091931 42.18093449 42.26353943
 42.30815279 42.30815974 42.51819856 61.11753724 82.48765711 82.77293135
 82.77294068 88.56811248]
  21 ( 0.667  0.333 -0.000)   [-6.80655894e+01 -1.06905985e+01 -5.48729684e+00 -3.57255090e+00
 -3.57193179e+00 -3.57120321e+00 -4.59780992e-01 -5.08527809e-02
  8.15953299e-02  3.40256453e-01] [ 0.69010134  0.93679387  1.03221945  1.04559828  1.12072597  1.20407695
  1.50655759  1.52040887  1.66532231  1.66758431  1.76784419  1.79868705
  1.85274263  1.95537967  2.00827724  2.15842611  2.17179756  2.24146986
  2.33331029  2.36854757  2.46507904  2.46715142  2.62160013  2.67284641
  2.86372891  2.88483539  2.92852761  2.94568893  2.96952619  3.16392392
  3.29400541  3.58732566  3.69425384  3.69986087  3.8389337   3.97766879
  4.03318808  4.1929465   4.21521737  4.36317725  4.44565678  4.52501344
  4.62707916  4.77889825  4.8235971   4.86215678  4.94278577  5.03130231
  5.10249435  5.23174216  5.47107672  5.50158652  5.93721941  6.17979752
  7.34696196  7.37156042  7.72127313  7.73598084  8.08585275 11.88475491
 12.1764894  12.31830194 12.36641347 17.00410314 17.33256879 17.53364793
 18.36132508 23.72335217 23.72365083 23.73374257 23.73406602 23.74815253
 23.753958   23.7652088  28.92191531 28.92788551 29.08361277 29.1342326
 29.31305539 42.16102663 42.16154661 42.18536367 42.19942043 42.23779311
 42.31626116 42.48359481 42.51816585 61.04435813 82.40992473 82.64164515
 82.7901477  88.33175335]
  22 ( 0.667  0.333  0.333)   [-6.80655894e+01 -1.06905978e+01 -5.48731387e+00 -3.57256581e+00
 -3.57194378e+00 -3.57117173e+00 -4.59456388e-01 -5.05562734e-02
  8.14651736e-02  3.40432382e-01] [ 0.69018425  0.93668511  1.03218968  1.04560052  1.12073381  1.20404639
  1.50655905  1.52045164  1.66536686  1.66756698  1.76780505  1.79870667
  1.85273493  1.95534624  2.00827805  2.15841282  2.17178621  2.24146721
  2.33332028  2.36857536  2.46510663  2.4671805   2.62158724  2.67283314
  2.86373203  2.88488039  2.92853838  2.9456973   2.96949877  3.16389999
  3.29402605  3.58729601  3.69428311  3.69986964  3.83892561  3.97769321
  4.03314519  4.19289605  4.21521621  4.36319349  4.44566381  4.52498275
  4.62708076  4.77897453  4.82357639  4.86217473  4.94280438  5.03132988
  5.10248526  5.23171134  5.47111386  5.50158025  5.93718264  6.17979262
  7.34696073  7.37156616  7.72126865  7.73600121  8.08583146 11.8847315
 12.17649768 12.31829037 12.36643889 17.00408105 17.33259901 17.53364106
 18.3613179  23.72336244 23.72364258 23.73374367 23.73406556 23.74815164
 23.75395631 23.76520875 28.9219153  28.92788911 29.08360867 29.13424201
 29.31304608 42.16103175 42.16153899 42.18535697 42.1994238  42.23779813
 42.31626263 42.48358773 42.51817231 61.04435786 82.40991788 82.64165446
 82.79014493 88.33175291]
  23 ( 0.667  0.333  0.667)   [-6.80655894e+01 -1.06905978e+01 -5.48731387e+00 -3.57256581e+00
 -3.57194378e+00 -3.57117173e+00 -4.59456388e-01 -5.05562734e-02
  8.14651736e-02  3.40432382e-01] [ 0.69018425  0.93668511  1.03218968  1.04560052  1.12073381  1.20404639
  1.50655905  1.52045164  1.66536686  1.66756698  1.76780505  1.79870667
  1.85273493  1.95534624  2.00827805  2.15841282  2.17178621  2.24146722
  2.33332027  2.36857536  2.46510663  2.46718052  2.62158727  2.67283316
  2.86373208  2.88488037  2.92853839  2.9456973   2.96949885  3.16389999
  3.29402605  3.58729605  3.69428292  3.69986978  3.8389258   3.9776932
  4.03314522  4.19289605  4.21521615  4.3631935   4.44566381  4.5249828
  4.62708086  4.77897448  4.8235764   4.86217478  4.94280438  5.03132987
  5.10248534  5.23171144  5.47111365  5.50158051  5.9371828   6.17979287
  7.34696073  7.37156616  7.72126865  7.7360012   8.08583147 11.8847315
 12.17649768 12.31829037 12.36643888 17.00408105 17.33259901 17.53364106
 18.36131791 23.72336244 23.72364258 23.73374367 23.73406556 23.74815164
 23.75395631 23.76520874 28.9219153  28.92788911 29.08360867 29.13424201
 29.31304608 42.16103175 42.16153899 42.18535697 42.1994238  42.23779813
 42.31626263 42.48358773 42.51817231 61.04435786 82.40991788 82.64165446
 82.79014493 88.33175291]
  24 ( 0.667  0.667 -0.000)   [-68.0656062  -10.69141467  -5.48975795  -3.57266761  -3.57126634
  -3.57123515  -0.73613904   0.10405186   0.31215915   0.31235122] [ 0.6248164   0.752336    1.09327537  1.09328048  1.09764545  1.34209007
  1.52586807  1.53170654  1.53171345  1.60624703  1.68361526  1.68361971
  1.78377508  1.8154456   2.15207459  2.15210715  2.19460138  2.29496007
  2.34228306  2.41111555  2.51295488  2.51297353  2.73105063  2.86726833
  2.87543813  2.87547663  2.92208583  3.11887433  3.20724005  3.20725305
  3.23129233  3.23133356  3.23573817  3.39620783  3.93279923  3.99894984
  3.99897754  4.19515151  4.37541776  4.3754804   4.40567081  4.41052694
  4.55311627  4.5531331   4.88610994  4.95904389  5.00613014  5.23784909
  5.24292079  5.24295629  5.33631867  5.33638537  5.48674984  5.67131514
  7.44022026  7.57887106  7.73181867  7.84934069  7.8493597  11.9667247
 12.15033882 12.1503646  12.38351099 17.10067422 17.51041855 17.51044884
 18.4359103  23.72449905 23.72796826 23.72797523 23.7328204  23.74589585
 23.74589883 23.74791829 28.9818559  29.00873419 29.07809687 29.1788913
 29.1789008  42.16823092 42.17091137 42.17091931 42.18093449 42.26353943
 42.30815279 42.30815974 42.51819856 61.11753725 82.48765711 82.77293135
 82.77294068 88.56811248]
  25 ( 0.667  0.667  0.333)   [-6.80655894e+01 -1.06905978e+01 -5.48731387e+00 -3.57256581e+00
 -3.57194378e+00 -3.57117173e+00 -4.59456388e-01 -5.05562734e-02
  8.14651736e-02  3.40432382e-01] [ 0.69018425  0.93668511  1.03218968  1.04560052  1.12073381  1.20404639
  1.50655905  1.52045164  1.66536686  1.66756698  1.76780505  1.79870667
  1.85273493  1.95534624  2.00827805  2.15841282  2.17178621  2.24146721
  2.33332029  2.36857536  2.46510664  2.46718049  2.62158724  2.67283313
  2.86373202  2.8848804   2.92853838  2.94569731  2.96949876  3.16389999
  3.29402605  3.587296    3.69428328  3.6998696   3.83892557  3.97769322
  4.03314519  4.19289605  4.21521626  4.36319349  4.44566381  4.52498275
  4.6270807   4.77897458  4.82357638  4.86217472  4.94280438  5.03132988
  5.10248525  5.23171133  5.47111404  5.50158021  5.93718266  6.17979208
  7.34696073  7.37156616  7.72126864  7.73600121  8.08583146 11.8847315
 12.17649768 12.31829036 12.36643889 17.00408105 17.33259901 17.53364104
 18.3613179  23.72336244 23.72364258 23.73374367 23.73406557 23.74815164
 23.75395631 23.76520875 28.9219153  28.92788911 29.08360867 29.13424201
 29.31304608 42.16103175 42.16153899 42.18535697 42.1994238  42.23779813
 42.31626263 42.48358773 42.51817231 61.04435786 82.40991788 82.64165446
 82.79014493 88.33175291]
  26 ( 0.667  0.667  0.667)   [-6.80656104e+01 -1.06918575e+01 -5.49099246e+00 -3.57289615e+00
 -3.57092609e+00 -3.57092609e+00 -8.47589458e-01  1.92694659e-02
  4.22340058e-01  4.22340058e-01] [ 0.72959895  0.8909264   0.8909264   0.97300791  1.19108862  1.19108862
  1.20189034  1.54292337  1.57628712  1.57628712  1.75844275  1.81474756
  1.81474757  1.97972541  2.11135278  2.11135279  2.25597395  2.37751818
  2.37751818  2.5580659   2.5580659   2.6093847   2.735274    2.83473542
  2.83473545  2.88247232  2.88247232  2.92632283  3.12940097  3.21546012
  3.21546014  3.41152526  3.56623679  3.56623747  3.63702106  4.06505565
  4.06505585  4.07595123  4.11566073  4.33693583  4.40044529  4.40044537
  4.56101589  4.56101589  4.76859541  4.8823832   4.8823833   5.11865009
  5.19813707  5.19813721  5.39140916  5.39140931  5.63267238  6.10071991
  7.49908499  7.49908505  7.71067694  7.71067701  7.87200199 11.8740001
 12.22359343 12.22359345 12.25638701 17.00462105 17.38712353 17.38712354
 18.78934571 23.72240349 23.72838557 23.72838557 23.7413838  23.7445352
 23.7445352  23.76340164 28.99506551 28.99506551 29.10988395 29.10988396
 29.15076214 42.14611057 42.14611057 42.17645033 42.23328914 42.23328914
 42.37817567 42.42773337 42.42773338 61.1510591  82.4336908  82.68122523
 82.68122523 89.01933027]
    CPU time for get_k_kpts: make_kpt ki>=kj (0,*)      2.57 sec, wall time      0.09 sec
    CPU time for get_k_kpts: make_kpt ki>=kj (1,*)      8.75 sec, wall time      0.28 sec
    CPU time for get_k_kpts: make_kpt ki>=kj (2,*)     13.74 sec, wall time      0.44 sec
    CPU time for get_k_kpts: make_kpt ki>=kj (3,*)     17.86 sec, wall time      0.56 sec
    CPU time for get_k_kpts: make_kpt ki>=kj (4,*)     23.76 sec, wall time      0.75 sec
    CPU time for get_k_kpts: make_kpt ki>=kj (5,*)     27.40 sec, wall time      0.86 sec
    CPU time for get_k_kpts: make_kpt ki>=kj (6,*)     31.38 sec, wall time      0.98 sec
    CPU time for get_k_kpts: make_kpt ki>=kj (7,*)     35.48 sec, wall time      1.12 sec
    CPU time for get_k_kpts: make_kpt ki>=kj (8,*)     38.96 sec, wall time      1.22 sec
    CPU time for get_k_kpts: make_kpt ki>=kj (9,*)     42.54 sec, wall time      1.33 sec
    CPU time for get_k_kpts: make_kpt ki>=kj (10,*)     46.82 sec, wall time      1.47 sec
    CPU time for get_k_kpts: make_kpt ki>=kj (11,*)     52.36 sec, wall time      1.64 sec
    CPU time for get_k_kpts: make_kpt ki>=kj (12,*)     53.38 sec, wall time      1.68 sec
    CPU time for get_k_kpts: make_kpt ki>=kj (13,*)     53.68 sec, wall time      1.69 sec
    CPU time for get_k_kpts: make_kpt ki>=kj (14,*)     56.91 sec, wall time      1.79 sec
    CPU time for get_k_kpts: make_kpt ki>=kj (15,*)     62.50 sec, wall time      1.96 sec
    CPU time for get_k_kpts: make_kpt ki>=kj (16,*)     64.41 sec, wall time      2.02 sec
    CPU time for get_k_kpts: make_kpt ki>=kj (17,*)     69.74 sec, wall time      2.19 sec
    CPU time for get_k_kpts: make_kpt ki>=kj (18,*)     72.07 sec, wall time      2.26 sec
    CPU time for get_k_kpts: make_kpt ki>=kj (19,*)     76.55 sec, wall time      2.40 sec
    CPU time for get_k_kpts: make_kpt ki>=kj (20,*)     78.38 sec, wall time      2.47 sec
    CPU time for get_k_kpts: make_kpt ki>=kj (21,*)     93.88 sec, wall time      2.95 sec
    CPU time for get_k_kpts: make_kpt ki>=kj (22,*)     95.88 sec, wall time      3.04 sec
    CPU time for get_k_kpts: make_kpt ki>=kj (23,*)    103.31 sec, wall time      3.26 sec
    CPU time for get_k_kpts: make_kpt ki>=kj (24,*)    104.75 sec, wall time      3.29 sec
    CPU time for get_k_kpts: make_kpt ki>=kj (25,*)    107.83 sec, wall time      3.39 sec
    CPU time for get_k_kpts: make_kpt ki>=kj (26,*)    110.32 sec, wall time      3.47 sec
Monkhorst pack size [3 3 3] ew_eta 1.7082808598635142 ew_cut 4.117786017015192
Ewald components = 0, -0.963937826851544, 0.870979792219628
    CPU time for get_j pass 1     45.40 sec, wall time      1.60 sec
    CPU time for get_j pass 2      5.47 sec, wall time      1.11 sec
    CPU time for vj and vk   1599.81 sec, wall time     51.45 sec
Ewald components = 9.00674411881527e-134, -644.974612150364, 572.081161138653
E1 = (-317.35286476352536-2.6262161116388556e-14j)  E_coul = (63.38916685113499-5.923270194760714e-16j)
cycle= 1 E= -326.857148924102  delta_E= 1.18  |g|= 1.42  |ddm|= 53.2
    CPU time for cycle= 1   1605.61 sec, wall time     52.00 sec
diis-norm(errvec)=4.23946
diis-c [-17.97301383+0.j   1.        +0.j]
HOMO = 0.301947101013  LUMO = 0.6759184073
     k-point                  mo_energy
   0 ( 0.000  0.000  0.000)   [-68.24295755 -10.50705989  -5.56332273  -3.66892486  -3.66892486
  -3.66892457  -0.49040463   0.30189918   0.30189918   0.3019471 ] [ 0.85922896  0.88635219  0.88637313  0.88637313  1.19286792  1.19286792
  1.27007356  1.30435822  1.30435822  1.30436228  1.58518493  2.0369876
  2.03699492  2.03699492  2.29356869  2.29357223  2.29357223  2.39476674
  2.39476674  2.53403572  2.53403572  2.53403622  2.99370344  2.99370344
  2.99370368  3.13065779  3.13065779  3.15691822  3.15692324  3.15692324
  3.21264096  3.42681605  3.42682168  3.42682168  3.48014575  4.0546555
  4.0546555   4.05465884  4.37394418  4.37394418  4.37396218  4.46154742
  4.7995995   4.79961278  4.79961278  4.87700252  4.87700252  5.24639884
  5.246406    5.246406    5.30294208  6.09249071  6.09249409  6.09249409
  7.34062248  7.34062248  7.57863218  7.57863302  7.57863302 11.31482571
 12.64466281 12.64466281 12.6446651  17.67863572 17.70982742 17.70984319
 17.70984319 23.62455871 23.62456177 23.62456177 23.64686025 23.64686125
 23.64686125 23.6884873  28.84928415 28.84928415 28.95531678 28.95531678
 28.95531791 42.34467425 42.34467425 42.46747483 42.46748352 42.46748352
 42.96239937 42.96239937 42.96240131 59.89418615 82.9492726  82.9492806
 82.9492806  87.10329953]
   1 ( 0.000  0.000  0.333)   [-6.82429580e+01 -1.05071318e+01 -5.56330446e+00 -3.66907501e+00
 -3.66897265e+00 -3.66897239e+00 -3.88286991e-01 -4.72209874e-03
  2.60107647e-01  2.60139000e-01] [ 0.82155591  0.90122224  0.90123063  1.02483243  1.18725501  1.18726421
  1.2268732   1.55441888  1.58752118  1.5875233   1.76885326  1.80967847
  1.80967988  1.96329751  2.13924036  2.13924078  2.25190652  2.37875498
  2.37876126  2.55924545  2.55925066  2.6081496   2.74879512  2.81562028
  2.81562107  2.8995074   2.899512    2.9220382   3.14589164  3.22025268
  3.22025275  3.42434325  3.57821725  3.57821946  3.67516023  4.10164618
  4.10164974  4.13477395  4.13816984  4.37936018  4.46458217  4.46459238
  4.59356286  4.59356561  4.79262243  4.95353736  4.95354738  5.18498823
  5.24838659  5.24838965  5.47457995  5.47458578  5.68414088  6.17983686
  7.42942218  7.42942473  7.64352747  7.64352862  7.81632106 11.79769305
 12.14004893 12.14005103 12.1739804  17.16745692 17.54940749 17.54942167
 18.94846736 23.6242024  23.63015664 23.63015735 23.64319187 23.64635665
 23.64635775 23.665428   28.88298036 28.88298117 28.99799284 28.99799465
 29.03939267 42.13174228 42.18645505 42.18645545 42.3785048  42.37850805
 42.45767766 42.45768073 42.46440592 61.02207423 82.59273667 82.84025008
 82.84025721 89.17038561]
   2 ( 0.000  0.000  0.667)   [-6.82429580e+01 -1.05071318e+01 -5.56330446e+00 -3.66907501e+00
 -3.66897265e+00 -3.66897239e+00 -3.88286991e-01 -4.72209874e-03
  2.60107647e-01  2.60139000e-01] [ 0.82155591  0.90122224  0.90123063  1.02483243  1.18725501  1.18726421
  1.2268732   1.55441888  1.58752118  1.5875233   1.76885326  1.80967847
  1.80967988  1.96329751  2.13924036  2.13924078  2.25190652  2.37875498
  2.37876126  2.55924545  2.55925066  2.6081496   2.74879512  2.81562028
  2.81562107  2.8995074   2.899512    2.9220382   3.14589164  3.22025269
  3.22025275  3.42434325  3.57821721  3.5782195   3.67516023  4.10164617
  4.10164975  4.13477395  4.13816984  4.37936018  4.46458217  4.46459238
  4.59356286  4.59356561  4.79262243  4.95353736  4.95354738  5.18498823
  5.24838659  5.24838966  5.47457994  5.47458579  5.68414088  6.17983686
  7.42942218  7.42942473  7.64352747  7.64352861  7.81632106 11.79769305
 12.14004893 12.14005103 12.1739804  17.16745692 17.54940749 17.54942168
 18.94846736 23.6242024  23.63015664 23.63015735 23.64319187 23.64635665
 23.64635775 23.665428   28.88298036 28.88298117 28.99799284 28.99799465
 29.03939267 42.13174228 42.18645506 42.18645545 42.3785048  42.37850805
 42.45767766 42.45768073 42.46440592 61.02207423 82.59273667 82.84025008
 82.84025721 89.17038561]
   3 (-0.000  0.333  0.000)   [-6.82429580e+01 -1.05071318e+01 -5.56330446e+00 -3.66907501e+00
 -3.66897265e+00 -3.66897239e+00 -3.88286991e-01 -4.72209874e-03
  2.60107647e-01  2.60139000e-01] [ 0.82155591  0.90122224  0.90123063  1.02483243  1.18725501  1.18726421
  1.2268732   1.55441888  1.58752118  1.5875233   1.76885326  1.80967847
  1.80967987  1.9632975   2.13924037  2.13924078  2.25190651  2.37875499
  2.37876126  2.55924545  2.55925066  2.6081496   2.7487951   2.81562028
  2.81562109  2.8995074   2.899512    2.92203819  3.14589163  3.22025268
  3.22025275  3.42434324  3.57821757  3.57821919  3.67516023  4.10164624
  4.10164967  4.13477395  4.13816983  4.37936017  4.4645822   4.46459235
  4.59356285  4.59356561  4.79262242  4.95353741  4.95354734  5.18498822
  5.24838665  5.24838963  5.47458002  5.47458573  5.68414088  6.17983682
  7.4294222   7.42942471  7.64352744  7.64352865  7.81632106 11.79769305
 12.14004893 12.14005104 12.17398039 17.16745692 17.54940749 17.54942167
 18.94846736 23.6242024  23.63015664 23.63015735 23.64319187 23.64635665
 23.64635775 23.665428   28.88298036 28.88298117 28.99799284 28.99799465
 29.03939267 42.13174228 42.18645505 42.18645545 42.3785048  42.37850805
 42.45767766 42.45768073 42.46440592 61.02207423 82.59273667 82.84025009
 82.84025721 89.17038561]
   4 (-0.000  0.333  0.333)   [-6.82429581e+01 -1.05071558e+01 -5.56329677e+00 -3.66906072e+00
 -3.66902223e+00 -3.66902203e+00 -3.52754645e-01  4.85915062e-02
  1.71625745e-01  1.71646913e-01] [ 0.67591841  0.79016357  1.12524421  1.12524737  1.17807285  1.33070076
  1.53076091  1.53076176  1.53380383  1.59588444  1.68478518  1.68479061
  1.78439208  1.83129698  2.16411591  2.1641168   2.18863303  2.26912193
  2.34121556  2.41165886  2.52676396  2.52676697  2.76844148  2.86615147
  2.8661532   2.88159411  2.90002596  3.14114443  3.21134271  3.21134595
  3.23093877  3.23094143  3.25860539  3.39731855  3.94296168  4.06273342
  4.0627383   4.22184934  4.3849897   4.38499259  4.47120617  4.47385703
  4.61034294  4.61034573  4.96999207  5.01819386  5.06842084  5.26168934
[...]
  1.86167529  1.93562958  1.9999059   2.15928667  2.17055066  2.23880365
  2.33876333  2.36605181  2.45908174  2.47706141  2.61098323  2.68548201
  2.86934658  2.86990898  2.92868206  2.94362395  2.98168951  3.17998838
  3.29471337  3.60181832  3.71995106  3.72102558  3.86121594  4.04045194
  4.06979646  4.23364622  4.2649886   4.40349305  4.47930307  4.5707383
  4.66397425  4.82167232  4.86216325  4.90990106  4.9838045   5.10226953
  5.14256086  5.26375159  5.51089303  5.56790892  5.99914506  6.21264063
  7.29821602  7.32355821  7.68383635  7.69229004  8.04710208 11.83884976
 12.12201029 12.26357388 12.31244388 17.11419991 17.44234722 17.64286365
 18.47291185 23.65980532 23.66003129 23.6701589  23.6704507  23.68473647
 23.69038751 23.70170978 28.84972152 28.85571711 29.01215475 29.0626166
 29.24179789 42.16604163 42.22350695 42.26169826 42.29900601 42.30932705
 42.37274283 42.4429632  42.48255534 60.96019754 82.50018892 82.73188703
 82.88032389 88.41439119]
  15 ( 0.333  0.667  0.000)   [-6.81836422e+01 -1.05697600e+01 -5.52731262e+00 -3.63451488e+00
 -3.63450221e+00 -3.63443497e+00 -2.71890885e-01 -4.98754562e-02
  2.54893396e-02  1.80683995e-01] [ 0.73623648  0.97729451  1.05587988  1.10205885  1.15511532  1.19589983
  1.5076915   1.53610018  1.6778026   1.68801378  1.79026644  1.79913999
  1.86167529  1.93562958  1.9999059   2.15928668  2.17055066  2.23880366
  2.33876332  2.36605182  2.45908176  2.47706141  2.61098325  2.68548203
  2.86934663  2.86990898  2.92868207  2.94362394  2.98168958  3.1799884
  3.29471337  3.6018184   3.71995126  3.72102539  3.86121619  4.04045193
  4.0697965   4.23364624  4.26498855  4.40349306  4.47930307  4.57073834
  4.66397438  4.82167228  4.86216333  4.90990107  4.9838045   5.10226952
  5.14256093  5.2637517   5.51089286  5.56790919  5.99914518  6.21264199
  7.29821602  7.32355821  7.68383635  7.69229003  8.0471021  11.83884977
 12.12201029 12.26357389 12.31244387 17.11419991 17.44234721 17.6428637
 18.47291186 23.65980532 23.66003129 23.6701589  23.6704507  23.68473647
 23.69038752 23.70170978 28.84972152 28.85571711 29.01215475 29.0626166
 29.2417979  42.16604163 42.22350695 42.26169826 42.29900602 42.30932705
 42.37274284 42.4429632  42.48255534 60.96019754 82.50018892 82.73188703
 82.8803239  88.41439119]
  16 ( 0.333  0.667  0.333)   [-6.81836422e+01 -1.05697600e+01 -5.52731262e+00 -3.63451488e+00
 -3.63450221e+00 -3.63443497e+00 -2.71890885e-01 -4.98754520e-02
  2.54893349e-02  1.80683991e-01] [ 0.73623648  0.97729451  1.05587988  1.10205885  1.15511532  1.19589983
  1.5076915   1.53610018  1.6778026   1.68801378  1.79026644  1.79913999
  1.86167529  1.93562958  1.9999059   2.15928668  2.17055066  2.23880366
  2.33876331  2.36605182  2.45908176  2.4770614   2.61098326  2.68548202
  2.86934662  2.86990896  2.92868206  2.94362394  2.98168957  3.17998839
  3.29471337  3.60181837  3.71995122  3.72102524  3.86121611  4.04045192
  4.06979648  4.23364623  4.26498851  4.40349306  4.47930307  4.57073834
  4.66397434  4.82167224  4.8621633   4.90990107  4.9838045   5.10226952
  5.14256092  5.2637517   5.51089271  5.56790915  5.99914519  6.21264119
  7.29821602  7.32355821  7.68383635  7.69229003  8.04710209 11.83884976
 12.12201029 12.26357388 12.31244386 17.11419991 17.44234721 17.64286367
 18.47291186 23.65980532 23.66003129 23.6701589  23.6704507  23.68473647
 23.69038751 23.70170978 28.84972152 28.85571711 29.01215475 29.0626166
 29.2417979  42.16604163 42.22350695 42.26169826 42.29900602 42.30932705
 42.37274283 42.44296319 42.48255534 60.96019754 82.50018892 82.73188703
 82.88032389 88.41439119]
  17 ( 0.333  0.667  0.667)   [-6.81836422e+01 -1.05697600e+01 -5.52731262e+00 -3.63451488e+00
 -3.63450221e+00 -3.63443497e+00 -2.71890885e-01 -4.98754520e-02
  2.54893349e-02  1.80683991e-01] [ 0.73623648  0.97729451  1.05587988  1.10205885  1.15511532  1.19589983
  1.5076915   1.53610018  1.6778026   1.68801378  1.79026644  1.79913999
  1.86167529  1.93562958  1.9999059   2.15928667  2.17055066  2.23880365
  2.33876331  2.36605181  2.45908174  2.4770614   2.61098322  2.68548201
  2.86934659  2.86990896  2.92868206  2.94362394  2.98168951  3.17998839
  3.29471337  3.60181833  3.71995108  3.72102519  3.86121595  4.04045192
  4.06979646  4.23364623  4.2649885   4.40349305  4.47930307  4.57073829
  4.66397428  4.82167223  4.86216326  4.90990106  4.98380449  5.10226952
  5.14256086  5.2637516   5.51089267  5.56790894  5.99914505  6.21264096
  7.29821602  7.32355821  7.68383635  7.69229003  8.04710208 11.83884976
 12.12201029 12.26357388 12.31244386 17.11419991 17.44234721 17.64286366
 18.47291185 23.65980532 23.66003129 23.6701589  23.6704507  23.68473647
 23.69038751 23.70170978 28.84972152 28.85571711 29.01215475 29.0626166
 29.24179789 42.16604163 42.22350695 42.26169826 42.29900601 42.30932705
 42.37274283 42.44296319 42.48255534 60.96019754 82.50018892 82.73188703
 82.88032389 88.41439119]
  18 ( 0.667 -0.000 -0.000)   [-6.81836420e+01 -1.05697256e+01 -5.52732484e+00 -3.63450597e+00
 -3.63438073e+00 -3.63438073e+00 -3.90497766e-01 -9.33262650e-03
  2.43624092e-01  2.43624099e-01] [ 0.83160404  0.90622428  0.90622428  1.02354     1.18871189  1.18871189
  1.22788013  1.55867415  1.58800136  1.58800137  1.76931373  1.8094197
  1.8094197   1.96278879  2.13494651  2.13494652  2.25474712  2.38163407
  2.38163408  2.5598822   2.5598822   2.61121314  2.74718965  2.8194465
  2.81944655  2.89749052  2.89749053  2.9210622   3.14623673  3.22123851
  3.22123853  3.42244926  3.57889279  3.57889364  3.66935853  4.09707683
  4.09707704  4.12739194  4.13928895  4.3742122   4.4554641   4.45546419
  4.58932577  4.58932577  4.79025653  4.94050871  4.94050882  5.17298075
  5.23855209  5.23855222  5.45899337  5.45899355  5.67609708  6.16334276
  7.45441043  7.45441049  7.66802021  7.6680203   7.83798908 11.82693302
 12.16899285 12.16899287 12.20263855 17.11467558 17.4966289  17.49662891
 18.89986227 23.65882745 23.66476064 23.66476064 23.67777156 23.68094883
 23.68094884 23.70001312 28.92321676 28.92321676 29.03821079 29.0382108
 29.0795246  42.16235499 42.19549489 42.19549489 42.32610483 42.32610483
 42.41636478 42.42072606 42.42072606 61.06690635 82.52392369 82.77144348
 82.77144349 89.10164583]
  19 ( 0.667 -0.000  0.333)   [-6.81836422e+01 -1.05697600e+01 -5.52731262e+00 -3.63451488e+00
 -3.63450221e+00 -3.63443497e+00 -2.71890885e-01 -4.98754562e-02
  2.54893396e-02  1.80683995e-01] [ 0.73623648  0.97729451  1.05587988  1.10205885  1.15511532  1.19589983
  1.5076915   1.53610018  1.6778026   1.68801378  1.79026644  1.79913999
  1.86167529  1.93562958  1.9999059   2.15928667  2.17055066  2.23880366
  2.33876333  2.36605182  2.45908176  2.47706142  2.61098325  2.68548202
  2.86934663  2.86990899  2.92868206  2.94362395  2.98168957  3.17998839
  3.29471337  3.60181829  3.71995119  3.72102569  3.86121612  4.04045194
  4.06979648  4.23364623  4.26498863  4.40349305  4.47930307  4.57073833
  4.66397432  4.82167234  4.8621633   4.90990107  4.9838045   5.10226953
  5.14256091  5.26375168  5.51089313  5.56790916  5.99914515  6.21264103
  7.29821602  7.32355821  7.68383635  7.69229004  8.04710208 11.83884977
 12.12201029 12.26357388 12.31244388 17.11419991 17.44234722 17.64286366
 18.47291186 23.65980532 23.66003129 23.6701589  23.6704507  23.68473647
 23.69038751 23.70170978 28.84972152 28.85571711 29.01215475 29.0626166
 29.2417979  42.16604163 42.22350695 42.26169826 42.29900602 42.30932705
 42.37274283 42.4429632  42.48255534 60.96019754 82.50018892 82.73188703
 82.88032389 88.41439119]
  20 ( 0.667 -0.000  0.667)   [-6.81836421e+01 -1.05697429e+01 -5.52731640e+00 -3.63448813e+00
 -3.63443834e+00 -3.63443834e+00 -3.55600709e-01  4.15033535e-02
  1.58811548e-01  1.58811551e-01] [ 0.68566397  0.79593361  1.12650616  1.12650616  1.17360107  1.33293323
  1.53091108  1.53091108  1.53778976  1.5989463   1.68462261  1.68462261
  1.78413824  1.83049435  2.16164811  2.16164811  2.19045978  2.27638155
  2.34262894  2.41144946  2.52419327  2.52419328  2.76409604  2.86972006
  2.86972006  2.87977627  2.90695524  3.13731306  3.21279815  3.21279815
  3.23179163  3.23179163  3.25667995  3.39921757  3.94226488  4.05330707
  4.05330707  4.22153642  4.38564643  4.38564643  4.45793087  4.46544639
  4.60326126  4.60326126  4.95370092  5.01238907  5.05407967  5.2601579
  5.2919919   5.29199191  5.39173523  5.39173523  5.54500465  5.72545647
  7.39064585  7.53764594  7.69687739  7.80814645  7.80814645 11.9221096
 12.09537289 12.09537289 12.32850398 17.21078546 17.62034358 17.62034358
 18.54597247 23.66080305 23.6644035  23.6644035  23.66926506 23.68227951
 23.68227951 23.68455872 28.90967857 28.93677752 29.00683049 29.10740372
 29.10740372 42.17064523 42.17064523 42.27919021 42.28988079 42.33265754
 42.33265754 42.36271001 42.44520477 61.033471   82.57790244 82.86318018
 82.86318018 88.65031435]
  21 ( 0.667  0.333 -0.000)   [-6.81836422e+01 -1.05697600e+01 -5.52731262e+00 -3.63451488e+00
 -3.63450221e+00 -3.63443497e+00 -2.71890885e-01 -4.98754562e-02
  2.54893396e-02  1.80683995e-01] [ 0.73623648  0.97729451  1.05587988  1.10205885  1.15511532  1.19589983
  1.5076915   1.53610018  1.6778026   1.68801378  1.79026644  1.79913999
  1.86167529  1.93562958  1.9999059   2.15928668  2.17055066  2.23880366
  2.33876332  2.36605182  2.45908176  2.4770614   2.61098326  2.68548203
  2.86934664  2.86990897  2.92868207  2.94362394  2.98168959  3.1799884
  3.29471337  3.60181841  3.71995129  3.72102525  3.86121623  4.04045192
  4.0697965   4.23364624  4.26498851  4.40349306  4.47930307  4.57073834
  4.6639744   4.82167226  4.86216334  4.90990107  4.98380449  5.10226952
  5.14256094  5.26375172  5.51089274  5.56790924  5.99914519  6.21264215
  7.29821602  7.32355822  7.68383635  7.69229003  8.0471021  11.83884977
 12.12201029 12.26357389 12.31244387 17.11419991 17.44234721 17.64286371
 18.47291186 23.65980532 23.66003129 23.6701589  23.6704507  23.68473647
 23.69038752 23.70170978 28.84972152 28.85571711 29.01215475 29.0626166
 29.2417979  42.16604163 42.22350695 42.26169826 42.29900602 42.30932705
 42.37274284 42.4429632  42.48255534 60.96019754 82.50018892 82.73188703
 82.8803239  88.41439119]
  22 ( 0.667  0.333  0.333)   [-6.81836422e+01 -1.05697600e+01 -5.52731262e+00 -3.63451488e+00
 -3.63450221e+00 -3.63443497e+00 -2.71890885e-01 -4.98754520e-02
  2.54893349e-02  1.80683991e-01] [ 0.73623648  0.97729451  1.05587988  1.10205885  1.15511532  1.19589983
  1.5076915   1.53610018  1.6778026   1.68801378  1.79026644  1.79913999
  1.86167529  1.93562958  1.9999059   2.15928667  2.17055066  2.23880365
  2.33876331  2.36605181  2.45908174  2.4770614   2.61098323  2.68548202
  2.86934659  2.86990896  2.92868206  2.94362394  2.98168952  3.17998839
  3.29471337  3.60181834  3.71995111  3.72102525  3.86121599  4.04045192
  4.06979646  4.23364623  4.26498851  4.40349306  4.47930307  4.5707383
  4.66397429  4.82167225  4.86216328  4.90990106  4.98380449  5.10226952
  5.14256087  5.2637516   5.51089273  5.56790897  5.99914506  6.21264113
  7.29821602  7.32355821  7.68383635  7.69229003  8.04710208 11.83884976
 12.12201029 12.26357388 12.31244387 17.11419991 17.44234721 17.64286367
 18.47291185 23.65980532 23.66003129 23.6701589  23.6704507  23.68473647
 23.69038751 23.70170978 28.84972152 28.85571711 29.01215475 29.0626166
 29.24179789 42.16604163 42.22350695 42.26169826 42.29900601 42.30932705
 42.37274284 42.4429632  42.48255534 60.96019754 82.50018892 82.73188703
 82.88032389 88.41439119]
  23 ( 0.667  0.333  0.667)   [-6.81836422e+01 -1.05697600e+01 -5.52731262e+00 -3.63451488e+00
 -3.63450221e+00 -3.63443497e+00 -2.71890885e-01 -4.98754520e-02
  2.54893349e-02  1.80683991e-01] [ 0.73623648  0.97729451  1.05587988  1.10205885  1.15511532  1.19589983
  1.5076915   1.53610018  1.6778026   1.68801378  1.79026644  1.79913999
  1.86167529  1.93562958  1.9999059   2.15928668  2.17055066  2.23880366
  2.33876331  2.36605182  2.45908176  2.4770614   2.61098326  2.68548203
  2.86934663  2.86990895  2.92868206  2.94362393  2.98168959  3.1799884
  3.29471337  3.60181837  3.71995126  3.72102508  3.86121616  4.04045191
  4.06979649  4.23364623  4.26498847  4.40349306  4.47930307  4.57073834
  4.66397437  4.8216722   4.86216331  4.90990108  4.98380449  5.10226952
  5.14256093  5.26375172  5.51089255  5.5679092   5.99914519  6.21264137
  7.29821601  7.32355821  7.68383635  7.69229003  8.04710209 11.83884976
 12.12201029 12.26357388 12.31244386 17.11419991 17.44234721 17.64286367
 18.47291186 23.65980532 23.66003129 23.6701589  23.6704507  23.68473647
 23.69038752 23.70170978 28.84972152 28.85571711 29.01215475 29.0626166
 29.2417979  42.16604163 42.22350695 42.26169826 42.29900602 42.30932705
 42.37274284 42.44296319 42.48255534 60.96019754 82.50018892 82.73188703
 82.88032389 88.41439119]
  24 ( 0.667  0.667 -0.000)   [-6.81836421e+01 -1.05697429e+01 -5.52731640e+00 -3.63448813e+00
 -3.63443834e+00 -3.63443834e+00 -3.55600709e-01  4.15033535e-02
  1.58811548e-01  1.58811551e-01] [ 0.68566397  0.79593361  1.12650616  1.12650616  1.17360107  1.33293323
  1.53091108  1.53091108  1.53778976  1.59894631  1.68462261  1.68462261
  1.78413824  1.83049435  2.16164811  2.16164811  2.19045978  2.27638156
  2.34262894  2.41144945  2.52419327  2.52419327  2.76409605  2.86972005
  2.86972006  2.87977627  2.90695524  3.13731309  3.21279814  3.21279814
  3.23179162  3.23179162  3.25667995  3.39921756  3.942265    4.05330707
  4.05330707  4.22153643  4.38564641  4.38564642  4.45793087  4.46544639
  4.60326126  4.60326126  4.95370092  5.01238906  5.05407971  5.2601579
  5.29199189  5.29199189  5.39173522  5.39173522  5.54500466  5.72545654
  7.39064585  7.53764594  7.69687739  7.80814645  7.80814645 11.92210963
 12.09537289 12.09537289 12.32850398 17.21078546 17.62034358 17.62034358
 18.54597247 23.66080305 23.6644035  23.6644035  23.66926506 23.68227951
 23.68227951 23.68455872 28.90967857 28.93677752 29.00683049 29.10740372
 29.10740372 42.17064523 42.17064523 42.27919021 42.28988079 42.33265754
 42.33265754 42.36271001 42.44520477 61.033471   82.57790244 82.86318018
 82.86318018 88.65031435]
  25 ( 0.667  0.667  0.333)   [-6.81836422e+01 -1.05697600e+01 -5.52731262e+00 -3.63451488e+00
 -3.63450221e+00 -3.63443497e+00 -2.71890885e-01 -4.98754520e-02
  2.54893349e-02  1.80683991e-01] [ 0.73623648  0.97729451  1.05587988  1.10205885  1.15511532  1.19589983
  1.5076915   1.53610018  1.6778026   1.68801378  1.79026644  1.79913999
  1.86167529  1.93562958  1.9999059   2.15928667  2.17055066  2.23880365
  2.33876333  2.36605181  2.45908174  2.47706141  2.61098323  2.68548201
  2.86934657  2.86990898  2.92868206  2.94362395  2.9816895   3.17998838
  3.29471337  3.60181833  3.71995106  3.72102548  3.86121594  4.04045193
  4.06979646  4.23364622  4.26498857  4.40349305  4.47930307  4.5707383
  4.66397424  4.8216723   4.86216325  4.90990106  4.9838045   5.10226953
  5.14256086  5.26375159  5.51089295  5.56790892  5.99914508  6.21264061
  7.29821602  7.32355821  7.68383635  7.69229004  8.04710208 11.83884976
 12.12201029 12.26357388 12.31244387 17.11419991 17.44234722 17.64286365
 18.47291185 23.65980532 23.66003129 23.6701589  23.6704507  23.68473647
 23.69038751 23.70170978 28.84972152 28.85571711 29.01215475 29.0626166
 29.24179789 42.16604163 42.22350694 42.26169826 42.29900601 42.30932705
 42.37274283 42.4429632  42.48255534 60.96019754 82.50018892 82.73188703
 82.88032389 88.41439119]
  26 ( 0.667  0.667  0.667)   [-6.81836420e+01 -1.05697256e+01 -5.52732484e+00 -3.63450597e+00
 -3.63438073e+00 -3.63438073e+00 -3.90497766e-01 -9.33262573e-03
  2.43624091e-01  2.43624091e-01] [ 0.83160405  0.90622429  0.90622429  1.02354001  1.18871189  1.18871189
  1.22788013  1.55867415  1.58800136  1.58800137  1.76931373  1.80941969
  1.8094197   1.96278879  2.13494651  2.13494652  2.25474712  2.38163407
  2.38163407  2.55988219  2.5598822   2.61121314  2.74718966  2.81944649
  2.81944653  2.89749052  2.89749053  2.9210622   3.14623672  3.22123851
  3.22123852  3.42244925  3.5788927   3.57889342  3.66935853  4.09707682
  4.09707699  4.12739194  4.13928895  4.3742122   4.4554641   4.45546417
  4.58932577  4.58932577  4.79025653  4.9405087   4.9405088   5.17298074
  5.23855205  5.23855217  5.45899336  5.4589935   5.67609708  6.16334275
  7.45441042  7.45441048  7.6680202   7.66802028  7.83798908 11.82693302
 12.16899284 12.16899286 12.20263855 17.11467558 17.4966289  17.4966289
 18.89986227 23.65882745 23.66476064 23.66476064 23.67777156 23.68094883
 23.68094884 23.70001312 28.92321676 28.92321676 29.03821079 29.03821079
 29.0795246  42.16235499 42.19549489 42.19549489 42.32610483 42.32610483
 42.41636478 42.42072605 42.42072606 61.06690635 82.52392369 82.77144348
 82.77144349 89.10164582]
    CPU time for get_k_kpts: make_kpt ki>=kj (0,*)      2.76 sec, wall time      0.10 sec
    CPU time for get_k_kpts: make_kpt ki>=kj (1,*)      7.99 sec, wall time      0.25 sec
    CPU time for get_k_kpts: make_kpt ki>=kj (2,*)     13.17 sec, wall time      0.42 sec
    CPU time for get_k_kpts: make_kpt ki>=kj (3,*)     18.77 sec, wall time      0.59 sec
    CPU time for get_k_kpts: make_kpt ki>=kj (4,*)     19.85 sec, wall time      0.63 sec
    CPU time for get_k_kpts: make_kpt ki>=kj (5,*)     24.61 sec, wall time      0.77 sec
    CPU time for get_k_kpts: make_kpt ki>=kj (6,*)     28.07 sec, wall time      0.88 sec
    CPU time for get_k_kpts: make_kpt ki>=kj (7,*)     32.44 sec, wall time      1.02 sec
    CPU time for get_k_kpts: make_kpt ki>=kj (8,*)     35.27 sec, wall time      1.11 sec
    CPU time for get_k_kpts: make_kpt ki>=kj (9,*)     39.74 sec, wall time      1.27 sec
    CPU time for get_k_kpts: make_kpt ki>=kj (10,*)     43.95 sec, wall time      1.38 sec
    CPU time for get_k_kpts: make_kpt ki>=kj (11,*)     46.69 sec, wall time      1.47 sec
    CPU time for get_k_kpts: make_kpt ki>=kj (12,*)     50.92 sec, wall time      1.60 sec
    CPU time for get_k_kpts: make_kpt ki>=kj (13,*)     54.15 sec, wall time      1.70 sec
    CPU time for get_k_kpts: make_kpt ki>=kj (14,*)     57.64 sec, wall time      1.81 sec
    CPU time for get_k_kpts: make_kpt ki>=kj (15,*)     61.46 sec, wall time      1.93 sec
    CPU time for get_k_kpts: make_kpt ki>=kj (16,*)     66.25 sec, wall time      2.08 sec
    CPU time for get_k_kpts: make_kpt ki>=kj (17,*)     68.98 sec, wall time      2.17 sec
    CPU time for get_k_kpts: make_kpt ki>=kj (18,*)     73.87 sec, wall time      2.32 sec
    CPU time for get_k_kpts: make_kpt ki>=kj (19,*)     76.27 sec, wall time      2.39 sec
    CPU time for get_k_kpts: make_kpt ki>=kj (20,*)     80.45 sec, wall time      2.53 sec
    CPU time for get_k_kpts: make_kpt ki>=kj (21,*)     84.18 sec, wall time      2.64 sec
    CPU time for get_k_kpts: make_kpt ki>=kj (22,*)     87.48 sec, wall time      2.74 sec
    CPU time for get_k_kpts: make_kpt ki>=kj (23,*)     91.44 sec, wall time      2.87 sec
    CPU time for get_k_kpts: make_kpt ki>=kj (24,*)     93.67 sec, wall time      2.94 sec
    CPU time for get_k_kpts: make_kpt ki>=kj (25,*)     98.68 sec, wall time      3.10 sec
    CPU time for get_k_kpts: make_kpt ki>=kj (26,*)    101.54 sec, wall time      3.19 sec
Monkhorst pack size [3 3 3] ew_eta 1.7082808598635142 ew_cut 4.117786017015192
Ewald components = 0, -0.963937826851544, 0.870979792219628
    CPU time for get_j pass 1     49.37 sec, wall time      1.56 sec
    CPU time for get_j pass 2      5.40 sec, wall time      0.99 sec
    CPU time for vj and vk   1519.15 sec, wall time     48.58 sec
Ewald components = 9.00674411881527e-134, -644.974612150364, 572.081161138653
E1 = (-317.58522651980564-1.7663735390492772e-14j)  E_coul = (63.59720824196814+9.75614302975037e-16j)
Extra cycle  E= -326.881469289549  delta_E= -1.27e-10  |g|= 3.41e-05  |ddm|= 0.00119
    CPU time for scf_cycle  66000.87 sec, wall time   2294.10 sec
    CPU time for SCF  66000.93 sec, wall time   2294.14 sec
converged SCF energy = -326.881469289549
