#INFO: **** input file is /burg/ccce/users/eav2136/projects/core_level_spectroscopy/01_peommp2_cbe/meanfield.py ****
#!/usr/bin/env python
import json
from pyscf.pbc import gto, scf
from pyscf.pbc.tools import lattice, pyscf_ase
from pyscf.pbc.scf import chkfile
from fileutils import load, dump
import sys

material = load("data/{}".format(sys.argv[1]))
# Create Cell
cell = gto.Cell()
ase_atom = lattice.get_ase_atom(material["formula"])
cell.atom = pyscf_ase.ase_atoms_to_pyscf(ase_atom)
cell.a = ase_atom.cell[:]
cell.unit = "B"
cell.basis = material["basis"]
cell.exp_to_discard = material["exp_to_discard"]
cell.verbose = 7
cell.build()

# Mean Field
kdensity = material["kdensity"]
kmesh = [kdensity, kdensity, kdensity]
kpts = cell.make_kpts(kmesh, scaled_center=material["vb_scaled_center"])
mymf = scf.KRHF(cell, kpts=kpts, exxdiv="ewald")
mymf.chkfile = "data/{}".format(material["chk"])
mymf = mymf.density_fit()
mymf.with_df._cderi_to_save = "data/{}".format(material["cderi"])
ekrhf = mymf.kernel()
convergence = mymf.converged
mymf_data = dict([("ekrhf", float(ekrhf)),
                  ("convergence", bool(convergence))])
dump(mymf_data, "data/{}".format(material["ekrhf"]))
#INFO: ******************** input file end ********************


System: uname_result(system='Linux', node='g146', release='4.18.0-193.el8.x86_64', version='#1 SMP Fri Mar 27 14:35:58 UTC 2020', machine='x86_64')  Threads 32
Python 3.10.12 (main, Jul 29 2023, 11:27:27) [GCC 13.2.0]
numpy 1.25.1  scipy 1.10.1
Date: Mon Jan 15 18:56:51 2024
PySCF version 2.0.1
PySCF path  /burg/berkelbach/users/eav2136/builds/pyscf/projected-cvs/pyscf
GIT ORIG_HEAD 0bfbc692adf3ea63b8a509210433219cd1c472a2
GIT HEAD (branch projected-cvs) e14caaa2dddc538b9be2d86f01e5b456fc92da36

[ENV] PYSCF_TMPDIR /burg/ccce/users/eav2136/projects/core_level_spectroscopy/01_peommp2_cbe/tmp
[ENV] PYSCF_MAX_MEMORY 700000
[CONFIG] DEBUG = False
[CONFIG] MAX_MEMORY = 700000
[CONFIG] TMPDIR = /burg/ccce/users/eav2136/projects/core_level_spectroscopy/01_peommp2_cbe/tmp
[CONFIG] UNIT = angstrom
[CONFIG] VERBOSE = 3
[CONFIG] conf_file = None
[INPUT] verbose = 7
[INPUT] max_memory = 700000 
[INPUT] num. atoms = 2
[INPUT] num. electrons = 20
[INPUT] charge = 0
[INPUT] spin (= nelec alpha-beta = 2S) = 0
[INPUT] symmetry False subgroup None
[INPUT] Mole.unit = B
[INPUT]  1 Si     0.000000000000   0.000000000000   0.000000000000 AA    0.000000000000   0.000000000000   0.000000000000 Bohr
[INPUT]  2 C      1.087499921985   1.087499921985   1.087499921985 AA    2.055077013037   2.055077013037   2.055077013037 Bohr
[INPUT] ---------------- BASIS SET ---------------- 
[INPUT] l, kappa, [nprim/nctr], expnt,             c_1 c_2 ...
[INPUT] Si
[INPUT] 0    0    [13   /3   ]  254900            6.25101e-05 -1.6637e-05 4.26257e-06
                                38190             0.000485553 -0.00012931 3.31062e-05
                                8690              0.00254516 -0.000678828 0.000174015
                                2462              0.0105866 -0.00284117 0.000727574
                                804.8             0.0368787 -0.0100551 0.00258333
                                291.3             0.107479 -0.0305774 0.00786354
                                113.6             0.247936 -0.0777256 0.0202155
                                46.75             0.390927 -0.154236 0.040732
                                19.82             0.302026 -0.180368 0.0499358
                                7.708             0.0559236 0.0798218 -0.0249396
                                3.34              -0.00402406 0.547441 -0.19035
                                1.402             0.0025803 0.480119 -0.31835
                                0.207             0.00060793 -0.0106996 0.68118
[INPUT] 0    0    [1    /1   ]  0.4387               1
[INPUT] 0    0    [1    /1   ]  0.07944              1
[INPUT] 1    0    [7    /2   ]  481.5             0.00192045 -0.00040522
                                113.9             0.0153552 -0.00335896
                                36.23             0.0713991 -0.015286
                                13.34             0.213052 -0.0489218
                                5.252             0.390354 -0.0855008
                                2.12              0.393721 -0.112137
                                0.2528            0.0039563 0.551919
[INPUT] 1    0    [1    /1   ]  0.8561               1
[INPUT] 1    0    [1    /1   ]  0.07889              1
[INPUT] 2    0    [1    /1   ]  0.159                1
[INPUT] 2    0    [1    /1   ]  0.481                1
[INPUT] 3    0    [1    /1   ]  0.336                1
[INPUT] 0    0    [1    /1   ]  9.164                1
[INPUT] 0    0    [1    /1   ]  1.621                1
[INPUT] 1    0    [1    /1   ]  6.458                1
[INPUT] 1    0    [1    /1   ]  2.517                1
[INPUT] 2    0    [1    /1   ]  10.671               1
[INPUT] 2    0    [1    /1   ]  3.308                1
[INPUT] 3    0    [1    /1   ]  7.001                1
[INPUT] C
[INPUT] 0    0    [8    /2   ]  8236              0.000531 -0.000113
                                1235              0.004108 -0.000878
                                280.8             0.021087 -0.00454
                                79.27             0.081853 -0.018133
                                25.59             0.234817 -0.05576
                                8.997             0.434401 -0.126895
                                3.319             0.346129 -0.170352
                                0.3643            -0.008983 0.598684
[INPUT] 0    0    [1    /1   ]  0.9059               1
[INPUT] 0    0    [1    /1   ]  0.1285               1
[INPUT] 1    0    [3    /1   ]  18.71             0.014031
                                4.133             0.086866
                                1.2               0.290216
[INPUT] 1    0    [1    /1   ]  0.3827               1
[INPUT] 1    0    [1    /1   ]  0.1209               1
[INPUT] 2    0    [1    /1   ]  1.097                1
[INPUT] 2    0    [1    /1   ]  0.318                1
[INPUT] 3    0    [1    /1   ]  0.761                1
[INPUT] 0    0    [1    /1   ]  4.292                1
[INPUT] 0    0    [1    /1   ]  11.876               1
[INPUT] 1    0    [1    /1   ]  8.778                1
[INPUT] 1    0    [1    /1   ]  33.19                1
[INPUT] 2    0    [1    /1   ]  14.839               1

Ewald components = 9.00674411881527e-134, -644.974612150364, 572.081161138653
nuclear repulsion = -72.8934510117114
number of shells = 30
number of NR pGTOs = 139
number of NR cGTOs = 102
basis = ccpcvtz
ecp = {}
bas 0, expnt(s) = [2.549e+05 3.819e+04 8.690e+03 2.462e+03 8.048e+02 2.913e+02 1.136e+02
 4.675e+01 1.982e+01 7.708e+00 3.340e+00 1.402e+00 2.070e-01]
bas 1, expnt(s) = [0.4387]
bas 2, expnt(s) = [0.07944]
bas 3, expnt(s) = [4.815e+02 1.139e+02 3.623e+01 1.334e+01 5.252e+00 2.120e+00 2.528e-01]
bas 4, expnt(s) = [0.8561]
bas 5, expnt(s) = [0.07889]
bas 6, expnt(s) = [0.159]
bas 7, expnt(s) = [0.481]
bas 8, expnt(s) = [0.336]
bas 9, expnt(s) = [9.164]
bas 10, expnt(s) = [1.621]
bas 11, expnt(s) = [6.458]
bas 12, expnt(s) = [2.517]
bas 13, expnt(s) = [10.671]
bas 14, expnt(s) = [3.308]
bas 15, expnt(s) = [7.001]
bas 16, expnt(s) = [8.236e+03 1.235e+03 2.808e+02 7.927e+01 2.559e+01 8.997e+00 3.319e+00
 3.643e-01]
bas 17, expnt(s) = [0.9059]
bas 18, expnt(s) = [0.1285]
bas 19, expnt(s) = [18.71   4.133  1.2  ]
bas 20, expnt(s) = [0.3827]
bas 21, expnt(s) = [0.1209]
bas 22, expnt(s) = [1.097]
bas 23, expnt(s) = [0.318]
bas 24, expnt(s) = [0.761]
bas 25, expnt(s) = [4.292]
bas 26, expnt(s) = [11.876]
bas 27, expnt(s) = [8.778]
bas 28, expnt(s) = [33.19]
bas 29, expnt(s) = [14.839]
CPU time:         0.83
lattice vectors  a1 [0.000000000, 4.110154026, 4.110154026]
                 a2 [4.110154026, 0.000000000, 4.110154026]
                 a3 [4.110154026, 4.110154026, 0.000000000]
dimension = 3
low_dim_ft_type = None
Cell volume = 138.869
rcut = 27.543043613549035 (nimgs = [6 6 6])
lattice sum = 1361 cells
precision = 1e-08
pseudo = None
ke_cutoff = 518236.2144944772
    = [1539 1539 1539] mesh (3645153819 PWs)


******** <class 'pyscf.pbc.scf.khf.KRHF'> ********
method = KRHF-KSCF-RHF-SCF-RHF
initial guess = minao
damping factor = 0
level_shift factor = 0
DIIS = <class 'pyscf.scf.diis.CDIIS'>
diis_start_cycle = 1
diis_space = 8
SCF conv_tol = 1e-07
SCF conv_tol_grad = None
SCF max_cycles = 50
direct_scf = True
direct_scf_tol = 1e-13
chkfile to save SCF result = data/sic_ccpcvtz_k2_C_1s.chk
max_memory 700000 MB (current use 110 MB)


******** PBC SCF flags ********
N kpts = 8
kpts = [[ 0.          0.          0.        ]
 [ 0.38217456  0.38217456 -0.38217456]
 [ 0.38217456 -0.38217456  0.38217456]
 [ 0.76434913  0.          0.        ]
 [-0.38217456  0.38217456  0.38217456]
 [ 0.          0.76434913  0.        ]
 [ 0.          0.          0.76434913]
 [ 0.38217456  0.38217456  0.38217456]]
Exchange divergence treatment (exxdiv) = ewald
Monkhorst pack size [2 2 2] ew_eta 2.524363791145886 ew_cut 2.788138014809477
Ewald components = 0, -1.42444163786916, 1.28500458605009
    madelung (= occupied orbital energy shift) = 0.2788741036381417
    Total energy shift due to Ewald probe charge = -1/2 * Nelec*madelung = -2.78874103638
DF object = <pyscf.pbc.df.df.GDF object at 0x155553f37fd0>
Set gradient conv threshold to 0.000316228
Big error detected in the electron number of initial guess density matrix (Ne/cell = 19.9418)!
  This can cause huge error in Fock matrix and lead to instability in SCF for low-dimensional systems.
  DM is normalized wrt the number of electrons 20.0
    CPU time for vnuc pass1: analytic int    513.03 sec, wall time     16.33 sec
    CPU time for contracting Vnuc [0:512]     39.42 sec, wall time      1.24 sec
    CPU time for contracting Vnuc     39.42 sec, wall time      1.24 sec
    CPU time for get_nuc    552.53 sec, wall time     17.57 sec


******** <class 'pyscf.pbc.df.df.GDF'> ********
mesh = [9, 9, 9] (729 PWs)
auxbasis = None
eta = 0.2
exp_to_discard = None
_cderi_to_save = data/sic_ccpcvtz_k2_C_1s_cderi.h5
len(kpts) = 8
    kpts = [[ 0.          0.          0.        ]
 [ 0.38217456  0.38217456 -0.38217456]
 [ 0.38217456 -0.38217456  0.38217456]
 [ 0.76434913  0.          0.        ]
 [-0.38217456  0.38217456  0.38217456]
 [ 0.          0.76434913  0.        ]
 [ 0.          0.          0.76434913]
 [ 0.38217456  0.38217456  0.38217456]]
Even tempered Gaussians are generated as DF auxbasis for  Si C
  ETB auxbasis for Si  [[0, [10412.35968, 1]], [0, [5206.17984, 1]], [0, [2603.08992, 1]], [0, [1301.54496, 1]], [0, [650.77248, 1]], [0, [325.38624, 1]], [0, [162.69312, 1]], [0, [81.34656, 1]], [0, [40.67328, 1]], [0, [20.33664, 1]], [0, [10.16832, 1]], [0, [5.08416, 1]], [0, [2.54208, 1]], [0, [1.27104, 1]], [0, [0.63552, 1]], [0, [0.31776, 1]], [0, [0.15888, 1]], [1, [2594.063068591702, 1]], [1, [1297.031534295851, 1]], [1, [648.5157671479255, 1]], [1, [324.2578835739628, 1]], [1, [162.1289417869814, 1]], [1, [81.0644708934907, 1]], [1, [40.53223544674535, 1]], [1, [20.266117723372673, 1]], [1, [10.133058861686337, 1]], [1, [5.066529430843168, 1]], [1, [2.533264715421584, 1]], [1, [1.266632357710792, 1]], [1, [0.633316178855396, 1]], [1, [0.316658089427698, 1]], [1, [0.158329044713849, 1]], [2, [646.26688, 1]], [2, [323.13344, 1]], [2, [161.56672, 1]], [2, [80.78336, 1]], [2, [40.39168, 1]], [2, [20.19584, 1]], [2, [10.09792, 1]], [2, [5.04896, 1]], [2, [2.52448, 1]], [2, [1.26224, 1]], [2, [0.63112, 1]], [2, [0.31556, 1]], [2, [0.15778, 1]], [3, [114.68575997812458, 1]], [3, [57.34287998906229, 1]], [3, [28.671439994531145, 1]], [3, [14.335719997265572, 1]], [3, [7.167859998632786, 1]], [3, [3.583929999316393, 1]], [3, [1.7919649996581966, 1]], [3, [0.8959824998290983, 1]], [3, [0.44799124991454914, 1]], [3, [0.22399562495727457, 1]], [4, [20.352, 1]], [4, [10.176, 1]], [4, [5.088, 1]], [4, [2.544, 1]], [4, [1.272, 1]], [4, [0.636, 1]], [4, [0.318, 1]]]
  ETB auxbasis for C  [[0, [2105.344, 1]], [0, [1052.672, 1]], [0, [526.336, 1]], [0, [263.168, 1]], [0, [131.584, 1]], [0, [65.792, 1]], [0, [32.896, 1]], [0, [16.448, 1]], [0, [8.224, 1]], [0, [4.112, 1]], [0, [2.056, 1]], [0, [1.028, 1]], [0, [0.514, 1]], [0, [0.257, 1]], [1, [255.26699539423424, 1]], [1, [127.63349769711712, 1]], [1, [63.81674884855856, 1]], [1, [31.90837442427928, 1]], [1, [15.95418721213964, 1]], [1, [7.97709360606982, 1]], [1, [3.98854680303491, 1]], [1, [1.994273401517455, 1]], [1, [0.9971367007587275, 1]], [1, [0.49856835037936376, 1]], [1, [0.24928417518968188, 1]], [2, [247.6032, 1]], [2, [123.8016, 1]], [2, [61.9008, 1]], [2, [30.9504, 1]], [2, [15.4752, 1]], [2, [7.7376, 1]], [2, [3.8688, 1]], [2, [1.9344, 1]], [2, [0.9672, 1]], [2, [0.4836, 1]], [2, [0.2418, 1]], [3, [25.09785928719818, 1]], [3, [12.54892964359909, 1]], [3, [6.274464821799545, 1]], [3, [3.1372324108997725, 1]], [3, [1.5686162054498862, 1]], [3, [0.7843081027249431, 1]], [3, [0.39215405136247156, 1]], [4, [20.352, 1]], [4, [10.176, 1]], [4, [5.088, 1]], [4, [2.544, 1]], [4, [1.272, 1]], [4, [0.636, 1]]]
num shells = 111, num cGTOs = 465
Drop 0 primitive fitting functions
make aux basis, num shells = 111, num cGTOs = 465
auxcell.rcut 15.157222589146311
make compensating basis, num shells = 10, num cGTOs = 50
chgcell.rcut 11.482117703874595
    CPU time for 3c2e  36411.05 sec, wall time   1194.36 sec
Num uniq kpts 14
uniq_kpts [[ 0.          0.          0.        ]
 [-0.38217456 -0.38217456  0.38217456]
 [-0.38217456  0.38217456 -0.38217456]
 [ 0.          0.76434913 -0.76434913]
 [-0.76434913  0.          0.        ]
 [ 0.38217456 -0.38217456 -0.38217456]
 [ 0.76434913  0.         -0.76434913]
 [ 0.76434913 -0.76434913  0.        ]
 [ 1.14652369 -0.38217456 -0.38217456]
 [ 0.         -0.76434913  0.        ]
 [ 0.38217456 -1.14652369  0.38217456]
 [ 0.          0.         -0.76434913]
 [ 0.38217456  0.38217456 -1.14652369]
 [-0.38217456 -0.38217456 -0.38217456]]
max_memory 698948.06528 (MB)  blocksize 33929517
Cholesky decomposition for j2c at kpt 0
Symmetry pattern (k - [0. 0. 0.])*a= 2n pi
    make_kpt for uniq_kptji_ids [0]
kpt = [0. 0. 0.]
adapted_ji_idx = [ 0  2  5  9 14 20 27 35]
memory = 990.416896
int3c2e [1/1], AO [0:30], ncol = 5253
Symmetry pattern (k + [0. 0. 0.])*a= 2n pi
    make_kpt for [0]
Cholesky decomposition for j2c at kpt 1
Symmetry pattern (k - [-0.38217456 -0.38217456  0.38217456])*a= 2n pi
    make_kpt for uniq_kptji_ids [1]
kpt = [-0.38217456 -0.38217456  0.38217456]
adapted_ji_idx = [ 1  8 19 34]
memory = 1653.846016
int3c2e [1/1], AO [0:30], ncol = 10404
Symmetry pattern (k + [-0.38217456 -0.38217456  0.38217456])*a= 2n pi
    make_kpt for [1]
Cholesky decomposition for j2c at kpt 2
Symmetry pattern (k - [-0.38217456  0.38217456 -0.38217456])*a= 2n pi
    make_kpt for uniq_kptji_ids [2]
kpt = [-0.38217456  0.38217456 -0.38217456]
adapted_ji_idx = [ 3  7 25 33]
memory = 1767.899136
int3c2e [1/1], AO [0:30], ncol = 10404
Symmetry pattern (k + [-0.38217456  0.38217456 -0.38217456])*a= 2n pi
    make_kpt for [2]
Cholesky decomposition for j2c at kpt 3
Symmetry pattern (k - [ 0.          0.76434913 -0.76434913])*a= 2n pi
    make_kpt for uniq_kptji_ids [3 4]
kpt = [ 0.          0.76434913 -0.76434913]
adapted_ji_idx = [ 4 26]
memory = 1788.137472
int3c2e [1/1], AO [0:30], ncol = 10404
kpt = [-0.76434913  0.          0.        ]
adapted_ji_idx = [ 6 32]
memory = 1812.31616
int3c2e [1/1], AO [0:30], ncol = 10404
Symmetry pattern (k + [ 0.          0.76434913 -0.76434913])*a= 2n pi
    make_kpt for [3 4]
Cholesky decomposition for j2c at kpt 5
Symmetry pattern (k - [ 0.38217456 -0.38217456 -0.38217456])*a= 2n pi
    make_kpt for uniq_kptji_ids [5]
kpt = [ 0.38217456 -0.38217456 -0.38217456]
adapted_ji_idx = [10 16 23 31]
memory = 1816.956928
int3c2e [1/1], AO [0:30], ncol = 10404
Symmetry pattern (k + [ 0.38217456 -0.38217456 -0.38217456])*a= 2n pi
    make_kpt for [5]
Cholesky decomposition for j2c at kpt 6
Symmetry pattern (k - [ 0.76434913  0.         -0.76434913])*a= 2n pi
    make_kpt for uniq_kptji_ids [6 9]
kpt = [ 0.76434913  0.         -0.76434913]
adapted_ji_idx = [11 24]
memory = 1819.549696
int3c2e [1/1], AO [0:30], ncol = 10404
kpt = [ 0.         -0.76434913  0.        ]
adapted_ji_idx = [15 30]
memory = 1820.463104
int3c2e [1/1], AO [0:30], ncol = 10404
Symmetry pattern (k + [ 0.76434913  0.         -0.76434913])*a= 2n pi
    make_kpt for [6 9]
Cholesky decomposition for j2c at kpt 7
Symmetry pattern (k - [ 0.76434913 -0.76434913  0.        ])*a= 2n pi
    make_kpt for uniq_kptji_ids [ 7 11]
kpt = [ 0.76434913 -0.76434913  0.        ]
adapted_ji_idx = [12 18]
memory = 1822.53568
int3c2e [1/1], AO [0:30], ncol = 10404
kpt = [ 0.          0.         -0.76434913]
adapted_ji_idx = [21 29]
memory = 1826.156544
int3c2e [1/1], AO [0:30], ncol = 10404
Symmetry pattern (k + [ 0.76434913 -0.76434913  0.        ])*a= 2n pi
    make_kpt for [ 7 11]
Cholesky decomposition for j2c at kpt 8
Symmetry pattern (k - [ 1.14652369 -0.38217456 -0.38217456])*a= 2n pi
    make_kpt for uniq_kptji_ids [ 8 10 12 13]
kpt = [ 1.14652369 -0.38217456 -0.38217456]
adapted_ji_idx = [13]
memory = 1825.296384
int3c2e [1/1], AO [0:30], ncol = 10404
kpt = [ 0.38217456 -1.14652369  0.38217456]
adapted_ji_idx = [17]
memory = 1828.302848
int3c2e [1/1], AO [0:30], ncol = 10404
kpt = [ 0.38217456  0.38217456 -1.14652369]
adapted_ji_idx = [22]
memory = 1827.815424
int3c2e [1/1], AO [0:30], ncol = 10404
kpt = [-0.38217456 -0.38217456 -0.38217456]
adapted_ji_idx = [28]
memory = 1829.433344
int3c2e [1/1], AO [0:30], ncol = 10404
Symmetry pattern (k + [ 1.14652369 -0.38217456 -0.38217456])*a= 2n pi
    make_kpt for [ 8 10 12 13]
    CPU time for j3c  37854.51 sec, wall time   1247.15 sec
    CPU time for Init get_k_kpts  37855.13 sec, wall time   1247.17 sec
    CPU time for get_k_kpts: make_kpt ki>=kj (0,*)      3.13 sec, wall time      0.18 sec
    CPU time for get_k_kpts: make_kpt ki>=kj (1,*)     10.50 sec, wall time      0.33 sec
    CPU time for get_k_kpts: make_kpt ki>=kj (2,*)     15.50 sec, wall time      0.49 sec
    CPU time for get_k_kpts: make_kpt ki>=kj (3,*)     14.87 sec, wall time      0.47 sec
    CPU time for get_k_kpts: make_kpt ki>=kj (4,*)     21.13 sec, wall time      0.66 sec
    CPU time for get_k_kpts: make_kpt ki>=kj (5,*)     25.01 sec, wall time      0.78 sec
    CPU time for get_k_kpts: make_kpt ki>=kj (6,*)     34.43 sec, wall time      1.11 sec
    CPU time for get_k_kpts: make_kpt ki>=kj (7,*)     36.91 sec, wall time      1.17 sec
Monkhorst pack size [2 2 2] ew_eta 2.524363791145886 ew_cut 2.788138014809477
Ewald components = 0, -1.42444163786916, 1.28500458605009
    CPU time for get_j pass 1     17.27 sec, wall time      0.62 sec
    CPU time for get_j pass 2      5.61 sec, wall time      0.28 sec
    CPU time for vj and vk  38044.14 sec, wall time   1253.42 sec
Ewald components = 9.00674411881527e-134, -644.974612150364, 572.081161138653
E1 = (-319.32838838741975-1.0665664128292342e-15j)  E_coul = (63.69687994398817+5.778501203088403e-18j)
init E= -328.524959455143
cond(S) = [ 2094896.66896862 10024972.48138951 10024972.48113509  3895048.52773971
 10024972.47893432  3895048.5276189   3895048.52831208 10024972.47820449]
    CPU time for initialize scf  38602.77 sec, wall time   1271.31 sec
HOMO = 0.475187824359  LUMO = 0.560500345553
     k-point                  mo_energy
   0 ( 0.000  0.000  0.000)   [-68.00697963 -10.68620954  -5.47131916  -3.54400479  -3.54397192
  -3.54397192  -1.2792771    0.47517876   0.47518782   0.47518782] [ 0.70381292  0.87467987  0.87467987  0.87494413  1.20796662  1.20796662
  1.26678548  1.30723885  1.30723885  1.30728681  1.5956326   2.00158154
  2.00167364  2.00167364  2.29343745  2.29351646  2.29351646  2.39061932
  2.39061932  2.53444052  2.53444052  2.53449592  3.00388304  3.00394883
  3.00394883  3.13383687  3.13383687  3.13428901  3.1343098   3.1343098
  3.2181928   3.43814183  3.43815782  3.43815782  3.45933157  4.00281887
  4.00281887  4.00283802  4.31517394  4.31517394  4.31526608  4.40453999
  4.73473847  4.73483653  4.73483653  4.785999    4.785999    5.22966828
  5.22973591  5.22973591  5.24283279  6.0463188   6.04634642  6.04634642
  7.43565399  7.43565399  7.66064018  7.66065766  7.66065766 11.41009963
 12.75130268 12.75133307 12.75133307 17.52788011 17.55888669 17.55893351
 17.55893351 23.75152202 23.75152202 23.75153697 23.77385857 23.77385857
 23.77385992 23.81512788 28.99897511 28.99897511 29.10404016 29.10405299
 29.10405299 42.18420913 42.18420913 42.30955988 42.30957249 42.30957249
 43.13955288 43.13956007 43.13956007 60.07121087 82.80839432 82.80840851
 82.80840851 86.97055291]
   1 (-0.000 -0.000  0.500)   [-68.00692846 -10.68351659  -5.46222181  -3.54682817  -3.5442156
  -3.54417997  -0.5919933   -0.22002961   0.41274117   0.41285923] [ 0.71784757  0.87608196  0.87631888  0.9908859   1.24583281  1.32633977
  1.32639366  1.44474363  1.44475415  1.53646732  1.92084782  1.96065122
  1.96439346  1.96445322  2.07694084  2.0769511   2.28329033  2.29612468
  2.29614811  2.4369248   2.43693301  2.63958786  2.74388336  2.80768993
  2.80770453  2.82831779  2.82836875  2.85515928  3.11052567  3.32509599
  3.32512331  3.46761313  3.61349776  3.61351241  3.6922257   3.99319071
  4.1748265   4.17828598  4.17835765  4.4323261   4.43236348  4.47578218
  4.58438306  4.58440706  4.65608799  4.90325245  4.90329009  5.16736719
  5.18956694  5.18964459  5.37413771  5.37417071  5.77270949  6.29542235
  7.49547041  7.49547615  7.78240927  7.78243334  8.04217564 11.90233995
 12.37131859 12.37135392 12.39097441 17.02150766 17.38271768 17.38275875
 18.93999154 23.75105642 23.75828825 23.75828936 23.76199329 23.7734953
 23.77350547 23.77991219 29.01042364 29.01042509 29.16906011 29.1690733
 29.28560885 42.18128867 42.18129486 42.22743858 42.24215753 42.24216216
 42.44041306 42.58125767 42.58126622 61.27528716 82.4284515  82.6877804
 82.68779291 89.3212479 ]
   2 ( 0.000  0.500 -0.000)   [-68.00692846 -10.68351659  -5.46222181  -3.54682817  -3.5442156
  -3.54417997  -0.5919933   -0.22002961   0.41274117   0.41285923] [ 0.71784757  0.87608196  0.87631888  0.9908859   1.24583281  1.32633977
  1.32639366  1.44474364  1.44475415  1.53646732  1.92084782  1.96065122
  1.96439346  1.96445322  2.07694084  2.0769511   2.28329033  2.29612466
  2.29614815  2.43692479  2.43693303  2.63958786  2.74388335  2.80768992
  2.80770454  2.82831779  2.82836875  2.85515927  3.11052567  3.32509598
  3.32512333  3.4676131   3.61349658  3.61351437  3.69222569  3.99319071
  4.1748265   4.17828597  4.17835768  4.43232597  4.43236369  4.47578217
  4.58438324  4.58440696  4.65608797  4.90325234  4.90329028  5.16736718
  5.18956686  5.18964473  5.37413722  5.37417154  5.77270948  6.2954223
  7.49547053  7.49547608  7.78240909  7.78243363  8.04217563 11.90233995
 12.37131854 12.37135401 12.39097441 17.02150766 17.38271768 17.38275875
 18.93999153 23.75105642 23.75828825 23.75828936 23.76199329 23.7734953
 23.77350547 23.77991219 29.01042365 29.01042508 29.16906009 29.16907332
 29.28560885 42.18128867 42.18129486 42.22743858 42.24215753 42.24216216
 42.44041306 42.58125765 42.58126625 61.27528716 82.4284515  82.6877804
 82.68779291 89.3212479 ]
   3 ( 0.000  0.500  0.500)   [-68.00692258 -10.68291907  -5.46103487  -3.54620862  -3.54463359
  -3.5446003   -0.42836336  -0.10270538   0.27633248   0.27663901] [ 0.56050035  0.71605532  1.18137324  1.18143581  1.19202297  1.45961587
  1.52384336  1.52385232  1.53750426  1.59995914  1.78231449  1.78232641
  1.82272547  1.90468728  1.97449984  1.9745195   2.03384025  2.12770334
  2.39413527  2.39418408  2.39583357  2.55837794  2.77262276  2.83141192
  2.83143977  2.89086647  2.90680586  3.08997692  3.1452513   3.14526426
  3.32645294  3.34926825  3.34932601  3.49801335  3.68087388  4.04543757
  4.04546435  4.0961414   4.34155021  4.34157894  4.36771196  4.41463936
  4.65696662  4.76796244  4.76803367  5.03365655  5.05609007  5.08219175
  5.21499445  5.2150167   5.49019978  5.49025598  5.57990076  5.96637844
  7.4469016   7.4808783   7.75224865  7.93568932  7.93571027 12.06019633
 12.35234418 12.45491306 12.45493535 16.88267751 17.40106452 17.40109307
 18.68551749 23.75280761 23.76121802 23.76122817 23.76186945 23.76927552
 23.77423293 23.7742336  28.99450854 29.01349378 29.12510506 29.2631962
 29.2632052  42.17477853 42.17478674 42.18365415 42.19568376 42.27909945
 42.48794779 42.62176999 42.62177563 61.27417713 82.33831829 82.69856544
 82.69857455 89.02929194]
   4 ( 0.500  0.000  0.000)   [-68.00692846 -10.68351659  -5.46222181  -3.54682817  -3.5442156
  -3.54417997  -0.5919933   -0.22002961   0.41274117   0.41285923] [ 0.71784757  0.87608196  0.87631888  0.9908859   1.24583281  1.32633977
  1.32639366  1.44474364  1.44475415  1.53646732  1.92084782  1.96065122
  1.96439346  1.96445322  2.07694084  2.0769511   2.28329033  2.29612466
  2.29614813  2.43692479  2.43693302  2.63958786  2.74388335  2.80768992
  2.80770454  2.82831779  2.82836875  2.85515926  3.11052567  3.32509599
  3.32512331  3.46761306  3.61349691  3.61351336  3.69222569  3.99319071
  4.1748265   4.17828598  4.17835766  4.432326    4.4323636   4.47578217
  4.58438313  4.584407    4.65608793  4.90325238  4.90329016  5.16736718
  5.18956689  5.18964465  5.37413737  5.37417109  5.77270944  6.29542228
  7.49547046  7.4954761   7.78240914  7.78243348  8.04217562 11.90233995
 12.37131856 12.37135395 12.3909744  17.02150766 17.38271768 17.38275875
 18.93999153 23.75105642 23.75828825 23.75828936 23.76199329 23.7734953
 23.77350547 23.77991219 29.01042364 29.01042508 29.1690601  29.16907331
 29.28560885 42.18128867 42.18129486 42.22743858 42.24215753 42.24216216
 42.44041306 42.58125766 42.58126623 61.27528716 82.4284515  82.6877804
 82.68779291 89.3212479 ]
   5 ( 0.500  0.000  0.500)   [-68.00692258 -10.68291907  -5.46103487  -3.54620862  -3.54463359
  -3.5446003   -0.42836336  -0.10270538   0.27633248   0.27663901] [ 0.56050035  0.71605532  1.18137324  1.18143581  1.19202297  1.45961587
  1.52384336  1.52385232  1.53750426  1.59995914  1.78231449  1.78232641
  1.82272548  1.90468728  1.97449984  1.97451949  2.03384024  2.12770334
  2.39413526  2.39418407  2.39583357  2.55837794  2.77262277  2.83141192
  2.83143976  2.89086647  2.90680586  3.08997694  3.14525126  3.14526422
  3.32645294  3.34926825  3.349326    3.49801315  3.68087388  4.04543755
  4.04546433  4.09614142  4.34155021  4.34157894  4.36771196  4.41463936
  4.65696661  4.76796243  4.76803366  5.03365653  5.05609007  5.08219175
  5.21499439  5.21501665  5.49019976  5.49025596  5.57990076  5.96637823
  7.4469016   7.4808783   7.75224864  7.93568932  7.93571027 12.06019633
 12.35234417 12.45491306 12.45493535 16.88267751 17.40106452 17.40109307
 18.68551746 23.75280761 23.76121802 23.76122817 23.76186945 23.76927552
 23.77423293 23.7742336  28.99450854 29.01349378 29.12510506 29.2631962
 29.2632052  42.17477853 42.17478674 42.18365415 42.19568376 42.27909945
 42.48794779 42.62176999 42.62177562 61.27417713 82.33831829 82.69856544
 82.69857455 89.02929193]
   6 ( 0.500  0.500  0.000)   [-68.00692258 -10.68291907  -5.46103487  -3.54620862  -3.54463359
  -3.5446003   -0.42836336  -0.10270538   0.27633248   0.27663901] [ 0.56050035  0.71605532  1.18137324  1.18143581  1.19202297  1.45961587
  1.52384336  1.52385232  1.53750426  1.59995914  1.78231449  1.78232641
  1.82272548  1.90468728  1.97449984  1.9745195   2.03384024  2.12770335
  2.39413527  2.39418408  2.39583357  2.55837794  2.77262277  2.83141192
  2.83143977  2.89086646  2.90680586  3.08997695  3.14525129  3.14526424
  3.32645294  3.34926825  3.34932601  3.49801307  3.68087388  4.04543756
  4.04546434  4.09614143  4.34155021  4.34157894  4.36771195  4.41463936
  4.6569666   4.76796244  4.76803366  5.03365653  5.05609007  5.08219175
  5.21499443  5.21501668  5.49019978  5.49025597  5.57990077  5.96637817
  7.4469016   7.4808783   7.75224864  7.93568932  7.93571027 12.06019633
 12.35234417 12.45491306 12.45493535 16.88267751 17.40106452 17.40109307
 18.68551745 23.75280761 23.76121802 23.76122817 23.76186945 23.76927552
 23.77423293 23.7742336  28.99450854 29.01349378 29.12510506 29.2631962
 29.2632052  42.17477853 42.17478674 42.18365415 42.19568376 42.27909945
 42.48794779 42.62176999 42.62177562 61.27417713 82.33831829 82.69856544
 82.69857455 89.02929193]
   7 ( 0.500  0.500  0.500)   [-68.0069282  -10.68351259  -5.46223751  -3.5468595   -3.54417708
  -3.54417708  -0.59025251  -0.21944067   0.41303406   0.41303406] [ 0.71781772  0.87619181  0.87619181  0.9907589   1.24576048  1.32635819
  1.32635819  1.44471925  1.44471925  1.53649975  1.9208422   1.96068518
  1.96443561  1.96443562  2.07694771  2.07694771  2.28332306  2.2961578
  2.29615782  2.43696728  2.43696729  2.63964827  2.74383531  2.80769304
  2.80769305  2.82832465  2.82832465  2.85509063  3.11049417  3.32511706
  3.32511708  3.4676256   3.61353797  3.6135391   3.69218337  3.99325444
  4.1748415   4.17827645  4.17827646  4.43232946  4.43232957  4.47573812
  4.5844097   4.58440981  4.6561182   4.90326917  4.90326928  5.16733015
  5.1896413   5.18964138  5.37419131  5.37419179  5.77267951  6.2953765
  7.49549079  7.49549086  7.78242126  7.78242143  8.0421395  11.90238617
 12.37135135 12.37135141 12.39090398 17.02146676 17.38275805 17.38275805
 18.93998107 23.75106971 23.75829011 23.75829011 23.76198242 23.77349207
 23.77349207 23.77992415 29.01043257 29.01043258 29.16906442 29.16906443
 29.28559634 42.18128747 42.18128747 42.22742806 42.24216966 42.24216966
 42.44040662 42.58126605 42.58126607 61.27528643 82.42843889 82.6877928
 82.6877928  89.32124621]
    CPU time for get_k_kpts: make_kpt ki>=kj (0,*)      4.35 sec, wall time      0.14 sec
    CPU time for get_k_kpts: make_kpt ki>=kj (1,*)      9.52 sec, wall time      0.30 sec
    CPU time for get_k_kpts: make_kpt ki>=kj (2,*)     13.69 sec, wall time      0.43 sec
    CPU time for get_k_kpts: make_kpt ki>=kj (3,*)     18.85 sec, wall time      0.59 sec
    CPU time for get_k_kpts: make_kpt ki>=kj (4,*)     22.57 sec, wall time      0.71 sec
    CPU time for get_k_kpts: make_kpt ki>=kj (5,*)     25.04 sec, wall time      0.79 sec
    CPU time for get_k_kpts: make_kpt ki>=kj (6,*)     30.02 sec, wall time      0.94 sec
    CPU time for get_k_kpts: make_kpt ki>=kj (7,*)     32.97 sec, wall time      1.03 sec
Monkhorst pack size [2 2 2] ew_eta 2.524363791145886 ew_cut 2.788138014809477
Ewald components = 0, -1.42444163786916, 1.28500458605009
    CPU time for get_j pass 1     14.43 sec, wall time      0.48 sec
    CPU time for get_j pass 2      5.92 sec, wall time      0.31 sec
    CPU time for vj and vk    182.33 sec, wall time      5.87 sec
Ewald components = 9.00674411881527e-134, -644.974612150364, 572.081161138653
E1 = (-317.26675017500526-1.0456874609262973e-15j)  E_coul = (63.346664475389524+4.808076429227049e-17j)
cycle= 1 E= -326.813536711327  delta_E= 1.71  |g|= 1.01  |ddm|= 56.1
    CPU time for cycle= 1    185.31 sec, wall time      5.97 sec
diis-norm(errvec)=2.63693
diis-c [-6.9534241+0.j  1.       +0.j]
HOMO = 0.294513081562  LUMO = 0.640613870656
     k-point                  mo_energy
   0 ( 0.000  0.000  0.000)   [-68.29020974 -10.42290932  -5.58712258  -3.69505544  -3.69505383
  -3.69505383  -0.47119896   0.2944755    0.2944755    0.29451308] [ 0.89902534  0.89903585  0.89903585  0.90036512  1.19707313  1.19707313
  1.27040788  1.30473849  1.30473849  1.30474722  1.58317824  2.04928231
  2.04929292  2.04929292  2.29500062  2.29500313  2.29500313  2.3976667
  2.3976667   2.53408774  2.53408774  2.53409435  2.99220974  2.99220974
  2.99220991  3.13037351  3.13037351  3.16690559  3.16690992  3.16690992
  3.21085335  3.42412446  3.4241305   3.4241305   3.49057258  4.07278629
  4.07278629  4.07278927  4.3943388   4.3943388   4.39435868  4.48368124
  4.82797797  4.82799375  4.82799375  4.91176199  4.91176199  5.25630932
  5.25632093  5.25632094  5.3278749   6.11404299  6.11404468  6.11404469
  7.32227923  7.32227923  7.56423965  7.56424324  7.56424324 11.29611956
 12.6239179  12.62391794 12.62391794 17.75181795 17.78557225 17.78558981
 17.78558981 23.59973718 23.59973906 23.59973906 23.62203021 23.62203099
 23.62203099 23.66373952 28.81933802 28.81933802 28.92566065 28.92566065
 28.92566091 42.43016085 42.43016085 42.55096367 42.55097349 42.55097349
 42.92964584 42.92964584 42.92964676 59.86057587 83.03264653 83.03265566
 83.03265566 87.18361462]
   1 (-0.000 -0.000  0.500)   [-68.29021011 -10.42304369  -5.58710751  -3.69529127  -3.69512604
  -3.69512461  -0.29492467  -0.10754067   0.24217784   0.24219822] [ 0.83739114  0.89178497  0.89180428  1.03117165  1.30094472  1.33277429
  1.33278069  1.44724877  1.4472598   1.56542135  1.91499056  1.94212131
  1.97951204  1.97951784  2.07362266  2.07362383  2.27410017  2.31322636
  2.31323243  2.44476169  2.44476425  2.63699137  2.73836017  2.78919328
  2.78919563  2.83778457  2.83778843  2.86692257  3.11746707  3.32608707
  3.32608981  3.4946645   3.62134471  3.62134616  3.74958535  4.07238379
  4.19627571  4.28420728  4.28422531  4.4686587   4.46866859  4.56486302
  4.6633236   4.66333011  4.68381717  4.97102852  4.9710312   5.25503133
  5.25809962  5.25811155  5.48107141  5.48107965  5.80625479  6.42203874
  7.39474397  7.39474813  7.68254447  7.68254465  7.95079553 11.78194669
 12.24393237 12.24393245 12.26697528 17.24941463 17.61115134 17.61116751
 19.16300161 23.599265   23.60641053 23.60641089 23.61029087 23.62176817
 23.62176935 23.62830559 28.83136741 28.83136811 28.99036845 28.99036948
 29.10754958 42.17315013 42.27956504 42.27956626 42.43440513 42.43440574
 42.52637685 42.56819711 42.56820318 61.06294263 82.65271312 82.91210534
 82.91211352 89.53397058]
   2 ( 0.000  0.500 -0.000)   [-68.29021011 -10.42304369  -5.58710751  -3.69529127  -3.69512604
  -3.69512461  -0.29492467  -0.10754067   0.24217784   0.24219822] [ 0.83739114  0.89178497  0.89180428  1.03117165  1.30094472  1.33277429
  1.33278069  1.44724876  1.44725981  1.56542135  1.91499056  1.94212131
  1.97951204  1.97951784  2.07362266  2.07362383  2.27410017  2.31322633
  2.31323248  2.44476168  2.44476426  2.63699137  2.73836017  2.78919328
  2.78919563  2.83778455  2.83778846  2.86692256  3.11746707  3.32608705
  3.32608984  3.49466446  3.62134369  3.621348    3.74958534  4.07238379
  4.19627571  4.28420727  4.28422533  4.46865865  4.46866867  4.56486302
  4.66332385  4.66332996  4.68381714  4.97102837  4.97103146  5.25503132
  5.25809954  5.25811169  5.48107101  5.48108032  5.80625478  6.42203868
  7.3947439   7.39474826  7.68254433  7.6825449   7.95079553 11.78194669
 12.24393232 12.24393253 12.26697527 17.24941463 17.61115134 17.61116751
 19.1630016  23.599265   23.60641053 23.60641089 23.61029087 23.62176817
 23.62176934 23.62830559 28.8313674  28.83136812 28.99036848 28.99036947
 29.10754958 42.17315013 42.27956503 42.27956626 42.43440513 42.43440574
 42.52637685 42.5681971  42.5682032  61.06294263 82.65271312 82.91210534
 82.91211352 89.53397058]
   3 ( 0.000  0.500  0.500)   [-68.29021023 -10.42308978  -5.58710186  -3.69526345  -3.69520048
  -3.69519946  -0.22162136  -0.07770612   0.13942167   0.13943823] [ 0.64061387  0.76849855  1.23002225  1.23003513  1.29374898  1.44264553
  1.52548685  1.5255014   1.57199167  1.60396356  1.7714348   1.77143569
  1.80038381  1.90368609  1.96583317  1.96583699  2.02795465  2.09297364
  2.38816143  2.4357745   2.43578232  2.58178335  2.77485722  2.81204668
  2.81204847  2.87471023  2.91957237  3.11462347  3.15500315  3.15500597
  3.32250666  3.32250752  3.36198149  3.49724592  3.71018265  4.14939839
  4.14940308  4.18107726  4.40260488  4.41565021  4.41565728  4.51042675
  4.71863261  4.81520305  4.81522016  5.10120908  5.13067938  5.16161641
  5.30806206  5.30806386  5.53604292  5.53605506  5.68435335  6.06772644
  7.33368284  7.37486543  7.66983374  7.83515358  7.83515466 11.94438659
 12.22450923 12.32775339 12.32775447 17.11319552 17.62989623 17.62990736
 18.9051738  23.60089589 23.60957867 23.60957998 23.61029756 23.61754461
 23.62244493 23.62244543 28.81490687 28.83390625 28.94741342 29.08457823
 29.08457838 42.23356841 42.40421081 42.40421143 42.42413313 42.42413857
 42.44158311 42.46937288 42.52486347 61.06180079 82.5627791  82.92292636
 82.92293235 89.24119418]
   4 ( 0.500  0.000  0.000)   [-68.29021011 -10.42304369  -5.58710751  -3.69529127  -3.69512604
  -3.69512461  -0.29492467  -0.10754067   0.24217784   0.24219822] [ 0.83739114  0.89178497  0.89180428  1.03117165  1.30094472  1.33277429
  1.33278069  1.44724876  1.4472598   1.56542135  1.91499056  1.94212131
  1.97951204  1.97951784  2.07362266  2.07362383  2.27410017  2.31322634
  2.31323246  2.44476168  2.44476425  2.63699137  2.73836016  2.78919328
  2.78919563  2.83778456  2.83778844  2.86692255  3.11746707  3.32608706
  3.32608982  3.49466443  3.62134393  3.62134693  3.74958534  4.07238379
  4.1962757   4.28420727  4.28422531  4.46865865  4.46866864  4.56486302
  4.66332368  4.66333001  4.6838171   4.97102842  4.9710313   5.25503132
  5.25809956  5.25811161  5.48107112  5.48107993  5.80625475  6.42203866
  7.39474392  7.39474818  7.68254436  7.68254475  7.95079552 11.78194669
 12.24393234 12.24393247 12.26697527 17.24941463 17.61115134 17.61116751
 19.1630016  23.599265   23.60641053 23.60641089 23.61029087 23.62176817
 23.62176934 23.62830559 28.8313674  28.83136811 28.99036846 28.99036947
 29.10754958 42.17315013 42.27956504 42.27956626 42.43440513 42.43440574
 42.52637685 42.5681971  42.56820319 61.06294263 82.65271312 82.91210534
 82.91211352 89.53397058]
   5 ( 0.500  0.000  0.500)   [-68.29021023 -10.42308978  -5.58710186  -3.69526345  -3.69520048
  -3.69519946  -0.22162136  -0.07770612   0.13942167   0.13943823] [ 0.64061387  0.76849855  1.23002225  1.23003513  1.29374898  1.44264553
  1.52548685  1.5255014   1.57199167  1.60396356  1.7714348   1.77143569
  1.80038381  1.90368609  1.96583317  1.96583699  2.02795465  2.09297365
  2.38816143  2.43577449  2.43578231  2.58178335  2.77485723  2.81204668
  2.81204846  2.87471023  2.91957237  3.11462349  3.15500311  3.15500594
  3.32250666  3.32250752  3.36198149  3.49724572  3.71018265  4.14939837
  4.14940306  4.18107727  4.40260487  4.41565021  4.41565728  4.51042675
  4.7186326   4.81520304  4.81522014  5.10120906  5.13067938  5.16161641
  5.30806201  5.30806381  5.53604291  5.53605505  5.68435336  6.06772625
  7.33368284  7.37486543  7.66983373  7.83515358  7.83515465 11.94438659
 12.22450922 12.32775338 12.32775446 17.11319553 17.62989623 17.62990736
 18.90517378 23.60089589 23.60957867 23.60957998 23.61029756 23.61754461
 23.62244493 23.62244543 28.81490687 28.83390625 28.94741342 29.08457823
 29.08457838 42.2335684  42.40421081 42.40421142 42.42413313 42.42413857
 42.44158311 42.46937288 42.52486347 61.06180079 82.5627791  82.92292636
 82.92293235 89.24119417]
   6 ( 0.500  0.500  0.000)   [-68.29021023 -10.42308978  -5.58710186  -3.69526345  -3.69520048
  -3.69519946  -0.22162136  -0.07770612   0.13942167   0.13943823] [ 0.64061387  0.76849855  1.23002225  1.23003513  1.29374898  1.44264553
  1.52548685  1.5255014   1.57199167  1.60396356  1.7714348   1.77143569
  1.80038382  1.90368608  1.96583317  1.96583699  2.02795465  2.09297365
  2.38816143  2.4357745   2.43578231  2.58178335  2.77485723  2.81204668
  2.81204846  2.87471023  2.91957237  3.1146235   3.15500313  3.15500595
  3.32250666  3.32250752  3.36198149  3.49724565  3.71018265  4.14939838
  4.14940307  4.18107728  4.40260486  4.41565021  4.41565728  4.51042675
  4.7186326   4.81520304  4.81522015  5.10120906  5.13067938  5.16161641
  5.30806203  5.30806384  5.53604292  5.53605506  5.68435336  6.06772619
  7.33368284  7.37486543  7.66983373  7.83515358  7.83515466 11.94438659
 12.22450921 12.32775339 12.32775447 17.11319553 17.62989623 17.62990736
 18.90517377 23.60089589 23.60957867 23.60957998 23.61029756 23.61754461
 23.62244493 23.62244543 28.81490687 28.83390625 28.94741342 29.08457823
 29.08457838 42.2335684  42.40421081 42.40421142 42.42413313 42.42413857
 42.44158311 42.46937288 42.52486347 61.06180079 82.5627791  82.92292636
 82.92293235 89.24119417]
   7 ( 0.500  0.500  0.500)   [-68.29021011 -10.4230437   -5.58710751  -3.69529274  -3.69512468
  -3.69512468  -0.29491206  -0.10754915   0.24217143   0.24217143] [ 0.83740861  0.89180812  0.89180812  1.03118583  1.30095919  1.33276436
  1.33276436  1.44725186  1.44725186  1.56539682  1.91499085  1.94211837
  1.97951763  1.97951764  2.07362814  2.07362814  2.27410331  2.31323218
  2.31323221  2.44476496  2.44476497  2.6369982   2.73836226  2.78918927
  2.78918927  2.83778358  2.8377836   2.86692062  3.11746217  3.32609336
  3.32609338  3.49466618  3.62134721  3.62134839  3.74957478  4.0723989
  4.19627758  4.28420725  4.28420727  4.46865945  4.46865949  4.56484622
  4.66332762  4.66332776  4.68382207  4.97102451  4.97102467  5.25503504
  5.25811546  5.25811555  5.48108549  5.48108588  5.80625458  6.42202426
  7.39474644  7.39474652  7.68254629  7.68254646  7.95079205 11.78193569
 12.24393295 12.24393301 12.26698474 17.24940027 17.61116711 17.61116711
 19.16299753 23.59926332 23.60641098 23.60641098 23.61029188 23.62176962
 23.62176962 23.6283039  28.83136701 28.83136702 28.99036966 28.99036968
 29.10754975 42.1731502  42.2795656  42.2795656  42.43440483 42.43440483
 42.52636805 42.56820491 42.56820492 61.06294287 82.65270499 82.91211346
 82.91211346 89.5339703 ]
    CPU time for get_k_kpts: make_kpt ki>=kj (0,*)      5.35 sec, wall time      0.17 sec
    CPU time for get_k_kpts: make_kpt ki>=kj (1,*)     11.47 sec, wall time      0.36 sec
    CPU time for get_k_kpts: make_kpt ki>=kj (2,*)     14.05 sec, wall time      0.44 sec
    CPU time for get_k_kpts: make_kpt ki>=kj (3,*)     17.69 sec, wall time      0.56 sec
    CPU time for get_k_kpts: make_kpt ki>=kj (4,*)     21.61 sec, wall time      0.68 sec
    CPU time for get_k_kpts: make_kpt ki>=kj (5,*)     25.69 sec, wall time      0.81 sec
    CPU time for get_k_kpts: make_kpt ki>=kj (6,*)     29.35 sec, wall time      0.92 sec
    CPU time for get_k_kpts: make_kpt ki>=kj (7,*)     32.92 sec, wall time      1.03 sec
Monkhorst pack size [2 2 2] ew_eta 2.524363791145886 ew_cut 2.788138014809477
Ewald components = 0, -1.42444163786916, 1.28500458605009
    CPU time for get_j pass 1     14.45 sec, wall time      0.48 sec
    CPU time for get_j pass 2      5.90 sec, wall time      0.33 sec
    CPU time for vj and vk    183.02 sec, wall time      5.92 sec
Ewald components = 9.00674411881527e-134, -644.974612150364, 572.081161138653
E1 = (-317.6779994272096-1.136408859672445e-15j)  E_coul = (63.73242203781712+2.7550570776773336e-17j)
cycle= 2 E= -326.839028401104  delta_E= -0.0255  |g|= 0.328  |ddm|= 22.6
    CPU time for cycle= 2    186.10 sec, wall time      6.02 sec
diis-norm(errvec)=1.07122
diis-c [-0.87332858+8.96831017e-44j  0.17516255-8.17405885e-29j
  0.82483745+8.17405885e-29j]
HOMO = 0.267185206044  LUMO = 0.644961807935
     k-point                  mo_energy
   0 ( 0.000  0.000  0.000)   [-68.17708544 -10.5531017   -5.52571478  -3.63285233  -3.63285222
  -3.63285222  -0.48194991   0.26716328   0.26716328   0.26718521] [ 0.88964905  0.90560884  0.90561359  0.90561359  1.19803362  1.19803362
  1.28034048  1.30716563  1.30716563  1.30716681  1.58727183  2.03524646
  2.03524757  2.03524757  2.29482257  2.29482279  2.29482279  2.40013451
  2.40013451  2.53682273  2.53682474  2.53682474  2.99272802  2.99272802
  2.99272924  3.13149208  3.13149208  3.15882833  3.1588308   3.1588308
  3.21444934  3.43031399  3.43031634  3.43031634  3.48508907  4.05415394
  4.05415394  4.054156    4.3717403   4.3717403   4.3717475   4.45731033
  4.79010855  4.79011285  4.79011285  4.8676041   4.8676041   5.24842904
  5.24842992  5.24842992  5.30040408  6.08779713  6.08779972  6.08779972
  7.36823285  7.36823285  7.60436054  7.60436054  7.60436068 11.34468165
 12.67419846 12.67419846 12.67419999 17.64594708 17.67323581 17.67324293
 17.67324294 23.66096039 23.66096208 23.66096208 23.68319757 23.68319805
 23.68319805 23.72485648 28.8924165  28.8924165  28.99840904 28.99840904
 28.99840974 42.29883886 42.29883886 42.42269532 42.42269962 42.42269962
 43.01061866 43.01061867 43.0106197  59.94257074 82.89464443 82.89464843
 82.89464843 87.0475223 ]
   1 (-0.000 -0.000  0.500)   [-68.17708584 -10.55321163  -5.52569461  -3.63312737  -3.63293108
  -3.63293099  -0.31244764  -0.11483377   0.21870373   0.21871833] [ 0.83688513  0.89635151  0.89635678  1.02686737  1.28800165  1.33595513
  1.33595599  1.44315163  1.44315403  1.5646031   1.91465864  1.95294286
  1.9753482   1.97535119  2.07376272  2.07376456  2.27335198  2.30777793
  2.30778027  2.44417055  2.44417431  2.64104698  2.73912959  2.79678409
  2.7967849   2.83322542  2.83322739  2.86199068  3.12044918  3.32711524
  3.32711673  3.48550838  3.62011288  3.62011449  3.72763679  4.04952322
  4.19512965  4.24816805  4.24817292  4.46262443  4.46262466  4.53653409
  4.63818794  4.6381889   4.67306677  4.94585721  4.94585746  5.22434925
  5.23206456  5.23206784  5.44351669  5.44351938  5.79527338  6.37493479
  7.43603583  7.43603738  7.72354073  7.72354237  7.98873367 11.83263604
 12.29512541 12.29512705 12.31717491 17.13640176 17.49800868 17.49801495
 19.05716615 23.66049138 23.66761334 23.66761339 23.6715036  23.6829573
 23.6829584  23.68941202 28.90427057 28.904271   29.0631751  29.06317618
 29.18014604 42.23273338 42.27806249 42.27806563 42.31685139 42.31685273
 42.41959594 42.50882196 42.50882294 61.14571698 82.51467644 82.77406498
 82.77406853 89.39778986]
   2 ( 0.000  0.500 -0.000)   [-68.17708584 -10.55321163  -5.52569461  -3.63312737  -3.63293108
  -3.63293099  -0.31244764  -0.11483377   0.21870373   0.21871833] [ 0.83688513  0.89635151  0.89635678  1.02686737  1.28800165  1.33595513
  1.33595599  1.44315163  1.44315404  1.5646031   1.91465864  1.95294286
  1.9753482   1.97535119  2.07376272  2.07376456  2.27335198  2.3077779
  2.30778032  2.44417054  2.44417432  2.64104698  2.73912959  2.79678409
  2.7967849   2.83322541  2.83322741  2.86199067  3.12044918  3.32711527
  3.32711672  3.48550835  3.62011291  3.62011523  3.72763678  4.04952322
  4.19512965  4.24816803  4.24817295  4.46262454  4.46262459  4.53653408
  4.63818781  4.63818912  4.67306674  4.94585729  4.94585748  5.22434923
  5.23206447  5.23206798  5.44351625  5.4435201   5.79527337  6.37493474
  7.43603575  7.43603751  7.72354103  7.72354218  7.98873367 11.83263604
 12.29512551 12.29512699 12.31717491 17.13640176 17.49800868 17.49801495
 19.05716614 23.66049138 23.66761334 23.66761339 23.6715036  23.6829573
 23.6829584  23.68941202 28.90427057 28.904271   29.06317512 29.06317616
 29.18014603 42.23273338 42.27806249 42.27806563 42.3168514  42.31685273
 42.41959593 42.50882195 42.50882297 61.14571698 82.51467644 82.77406498
 82.77406853 89.39778986]
   3 ( 0.000  0.500  0.500)   [-68.17708597 -10.55324968  -5.52568748  -3.63309616  -3.63301694
  -3.63301688  -0.24330295  -0.08512887   0.12192564   0.12193559] [ 0.64496181  0.77187403  1.22465915  1.22466561  1.26752523  1.45219603
  1.52190178  1.52190617  1.57248156  1.59584096  1.77491325  1.7749145
  1.80779611  1.90248158  1.96659115  1.96659143  2.03062041  2.10593708
  2.39439801  2.42007096  2.42007109  2.5770532   2.77168478  2.82065369
  2.82065597  2.88768545  2.91246842  3.10299943  3.15359537  3.1535967
  3.33122859  3.3312286   3.35189395  3.49442059  3.70632336  4.11293144
  4.11293365  4.14489653  4.39655338  4.39655387  4.39865348  4.48371393
  4.6936768   4.80025496  4.80025654  5.08080874  5.11490191  5.12340336
  5.27654419  5.276547    5.51869457  5.51869784  5.64839456  6.02850717
  7.37956494  7.41774627  7.70495465  7.87630455  7.87630504 11.99420214
 12.27526383 12.37897375 12.37897472 16.99897774 17.51657628 17.51658074
 18.80043936 23.66209669 23.67074005 23.67074118 23.67150599 23.6787365
 23.6835936  23.68359391 28.8879494  28.90695726 29.01986434 29.1573491
 29.15734957 42.25691884 42.28930534 42.28930823 42.31028402 42.39370673
 42.39878964 42.49180217 42.49180292 61.14472436 82.42464291 82.78486927
 82.7848719  89.10531063]
   4 ( 0.500  0.000  0.000)   [-68.17708584 -10.55321163  -5.52569461  -3.63312737  -3.63293108
  -3.63293099  -0.31244764  -0.11483377   0.21870373   0.21871833] [ 0.83688513  0.89635151  0.89635678  1.02686737  1.28800165  1.33595513
  1.33595599  1.44315163  1.44315403  1.5646031   1.91465864  1.95294286
  1.9753482   1.97535119  2.07376272  2.07376456  2.27335198  2.3077779
  2.30778028  2.44417055  2.44417432  2.64104698  2.73912959  2.79678409
  2.7967849   2.83322541  2.8332274   2.86199066  3.12044918  3.32711524
  3.32711673  3.48550832  3.62011298  3.62011424  3.72763678  4.04952322
  4.19512965  4.24816804  4.24817292  4.46262449  4.4626246   4.53653408
  4.63818785  4.63818896  4.67306671  4.94585725  4.94585739  5.22434924
  5.2320645   5.23206789  5.44351637  5.44351964  5.79527334  6.37493472
  7.43603577  7.43603743  7.72354084  7.72354223  7.98873366 11.83263604
 12.29512544 12.29512701 12.31717491 17.13640175 17.49800868 17.49801495
 19.05716614 23.66049138 23.66761334 23.66761339 23.6715036  23.6829573
 23.6829584  23.68941202 28.90427057 28.904271   29.06317511 29.06317617
 29.18014603 42.23273338 42.27806249 42.27806563 42.31685139 42.31685273
 42.41959593 42.50882195 42.50882295 61.14571698 82.51467644 82.77406498
 82.77406853 89.39778986]
   5 ( 0.500  0.000  0.500)   [-68.17708597 -10.55324968  -5.52568748  -3.63309616  -3.63301694
  -3.63301688  -0.24330295  -0.08512887   0.12192564   0.12193559] [ 0.64496181  0.77187403  1.22465915  1.22466561  1.26752523  1.45219603
  1.52190178  1.52190617  1.57248156  1.59584096  1.77491325  1.7749145
  1.80779612  1.90248158  1.96659115  1.96659143  2.0306204   2.10593708
  2.39439801  2.42007095  2.42007108  2.5770532   2.77168479  2.82065369
  2.82065597  2.88768545  2.91246842  3.10299945  3.15359533  3.15359666
  3.33122859  3.3312286   3.35189395  3.49442039  3.70632336  4.11293142
  4.11293364  4.14489654  4.39655338  4.39655387  4.39865347  4.48371393
  4.69367679  4.80025495  4.80025653  5.08080872  5.1149019   5.12340336
  5.27654413  5.27654695  5.51869455  5.51869783  5.64839456  6.02850698
  7.37956494  7.41774627  7.70495465  7.87630455  7.87630503 11.99420214
 12.27526383 12.37897374 12.37897472 16.99897774 17.51657627 17.51658073
 18.80043934 23.66209669 23.67074005 23.67074118 23.67150599 23.6787365
 23.6835936  23.68359391 28.8879494  28.90695726 29.01986434 29.1573491
 29.15734957 42.25691884 42.28930534 42.28930823 42.31028402 42.39370673
 42.39878964 42.49180217 42.49180292 61.14472436 82.42464291 82.78486927
 82.7848719  89.10531062]
   6 ( 0.500  0.500  0.000)   [-68.17708597 -10.55324968  -5.52568748  -3.63309616  -3.63301694
  -3.63301688  -0.24330295  -0.08512887   0.12192564   0.12193559] [ 0.64496181  0.77187403  1.22465915  1.22466561  1.26752523  1.45219603
  1.52190178  1.52190617  1.57248156  1.59584096  1.77491325  1.7749145
  1.80779612  1.90248158  1.96659115  1.96659143  2.0306204   2.10593708
  2.39439801  2.42007096  2.42007108  2.5770532   2.77168479  2.82065369
  2.82065597  2.88768545  2.91246842  3.10299946  3.15359535  3.15359668
  3.33122859  3.3312286   3.35189395  3.49442031  3.70632336  4.11293143
  4.11293364  4.14489655  4.39655338  4.39655387  4.39865346  4.48371393
  4.69367679  4.80025495  4.80025653  5.08080872  5.11490191  5.12340336
  5.27654416  5.27654697  5.51869456  5.51869783  5.64839457  6.02850692
  7.37956494  7.41774627  7.70495464  7.87630455  7.87630504 11.99420214
 12.27526382 12.37897374 12.37897472 16.99897774 17.51657628 17.51658073
 18.80043933 23.66209669 23.67074005 23.67074118 23.67150599 23.6787365
 23.6835936  23.68359391 28.8879494  28.90695726 29.01986434 29.1573491
 29.15734957 42.25691884 42.28930534 42.28930823 42.31028402 42.39370673
 42.39878963 42.49180217 42.49180292 61.14472436 82.42464291 82.78486927
 82.7848719  89.10531062]
   7 ( 0.500  0.500  0.500)   [-68.17708584 -10.55321163  -5.52569462  -3.63312749  -3.63293101
  -3.63293101  -0.31244476  -0.1148316    0.21870172   0.21870172] [ 0.8368921   0.89635849  0.89635849  1.02687243  1.28800874  1.33595245
  1.33595245  1.44315241  1.44315241  1.56459789  1.91465664  1.95294164
  1.97535075  1.97535075  2.07376608  2.07376608  2.2733523   2.30777925
  2.30777928  2.44416948  2.44416949  2.64104483  2.7391298   2.79678385
  2.79678385  2.83322692  2.83322693  2.8619934   3.12044648  3.32711663
  3.32711665  3.48550571  3.62011466  3.62011581  3.72763423  4.04952951
  4.19513146  4.24816687  4.24816688  4.46262609  4.46262615  4.53653313
  4.63818727  4.6381874   4.67306935  4.94585735  4.94585749  5.22434583
  5.23206656  5.23206664  5.44352251  5.44352292  5.79527427  6.37493044
  7.4360355   7.43603557  7.72354291  7.72354307  7.98873373 11.83263451
 12.29512542 12.29512548 12.31717745 17.1363956  17.49801457 17.49801457
 19.05716563 23.66048988 23.66761347 23.66761347 23.67150461 23.68295869
 23.68295869 23.68941058 28.90427001 28.90427001 29.06317613 29.06317615
 29.18014665 42.2327332  42.27806264 42.27806264 42.31685421 42.31685421
 42.41959308 42.50882312 42.50882314 61.14571701 82.51467292 82.77406848
 82.77406848 89.3977898 ]
    CPU time for get_k_kpts: make_kpt ki>=kj (0,*)      4.74 sec, wall time      0.15 sec
    CPU time for get_k_kpts: make_kpt ki>=kj (1,*)      9.12 sec, wall time      0.29 sec
    CPU time for get_k_kpts: make_kpt ki>=kj (2,*)     14.02 sec, wall time      0.44 sec
    CPU time for get_k_kpts: make_kpt ki>=kj (3,*)     17.06 sec, wall time      0.54 sec
    CPU time for get_k_kpts: make_kpt ki>=kj (4,*)     20.40 sec, wall time      0.65 sec
    CPU time for get_k_kpts: make_kpt ki>=kj (5,*)     25.39 sec, wall time      0.81 sec
    CPU time for get_k_kpts: make_kpt ki>=kj (6,*)     26.34 sec, wall time      0.83 sec
    CPU time for get_k_kpts: make_kpt ki>=kj (7,*)     31.54 sec, wall time      0.99 sec
Monkhorst pack size [2 2 2] ew_eta 2.524363791145886 ew_cut 2.788138014809477
Ewald components = 0, -1.42444163786916, 1.28500458605009
    CPU time for get_j pass 1     13.72 sec, wall time      0.46 sec
    CPU time for get_j pass 2      5.92 sec, wall time      0.28 sec
    CPU time for vj and vk    172.31 sec, wall time      5.58 sec
Ewald components = 9.00674411881527e-134, -644.974612150364, 572.081161138653
E1 = (-317.5946030279316-1.1077716514133857e-15j)  E_coul = (63.6464793997656+2.6256707733331795e-17j)
cycle= 3 E= -326.841574639877  delta_E= -0.00255  |g|= 0.0689  |ddm|=  2.1
    CPU time for cycle= 3    175.50 sec, wall time      5.69 sec
diis-norm(errvec)=0.215905
diis-c [-0.00778193-4.48415509e-44j -0.08585625+1.85690763e-29j
 -0.08552379-1.11095889e-28j  1.17138004+9.25268128e-29j]
HOMO = 0.268358592725  LUMO = 0.646487648929
     k-point                  mo_energy
   0 ( 0.000  0.000  0.000)   [-68.18619514 -10.53777639  -5.52813782  -3.63640889  -3.63640878
  -3.63640878  -0.47883911   0.26835328   0.26835328   0.26835859] [ 0.89439496  0.90717498  0.90717613  0.90717613  1.1985197   1.1985197
  1.28071381  1.30708657  1.30708734  1.30708734  1.58640871  2.03797227
  2.03797227  2.03797356  2.29522757  2.29522757  2.29522849  2.40138647
  2.40138647  2.53722803  2.53723004  2.53723004  2.99237525  2.99237525
  2.99237613  3.13150889  3.13150889  3.16112646  3.16112703  3.16112703
  3.21434802  3.43001807  3.43001828  3.43001828  3.48771096  4.05774762
  4.05774762  4.05774818  4.37562177  4.37562177  4.37562192  4.46107335
  4.7951797   4.7951797   4.7951806   4.87377663  4.87377663  5.25052745
  5.25052746  5.25052914  5.30515686  6.09147813  6.09147936  6.09147936
  7.36622592  7.36622592  7.60303215  7.60303215  7.60303259 11.34273959
 12.67148095 12.67148095 12.67148151 17.6589379  17.686822   17.68682267
 17.68682267 23.65786366 23.65786406 23.65786406 23.68008887 23.68008895
 23.68008895 23.72177773 28.88796085 28.88796085 28.99402468 28.99402468
 28.9940249  42.31435508 42.31435508 42.43801266 42.43801328 42.43801328
 43.00496737 43.00496737 43.00496761 59.93699467 82.91090801 82.91090863
 82.91090864 87.06349716]
   1 (-0.000 -0.000  0.500)   [-68.18619553 -10.53787844  -5.52811719  -3.63668544  -3.63648671
  -3.63648661  -0.30982729  -0.11296329   0.21989572   0.21989928] [ 0.84008226  0.89747321  0.89747353  1.02787648  1.29051846  1.3367952
  1.33679621  1.444099    1.44409948  1.56657909  1.91433354  1.95324748
  1.97645373  1.97645456  2.07401952  2.07402006  2.27268606  2.30882141
  2.30882156  2.44509613  2.44509736  2.64142014  2.73897511  2.79595101
  2.79595202  2.8343298   2.83433025  2.86260219  3.12161499  3.32766452
  3.32766562  3.48679811  3.62066807  3.62067023  3.73095338  4.05337105
  4.19730496  4.25358775  4.25358851  4.46505199  4.46505394  4.54135427
  4.64201177  4.64201331  4.67509828  4.94959791  4.9495986   5.22855219
  5.23599163  5.2359923   5.44902182  5.44902237  5.79768     6.38116266
  7.43453692  7.43453708  7.72198346  7.72198431  7.98748887 11.83045563
 12.29250981 12.29251053 12.3146958  17.15010149 17.51170507 17.51170553
 19.07014009 23.65739343 23.66450525 23.66450527 23.66841211 23.67985928
 23.67985955 23.68631547 28.89984706 28.89984711 29.05876372 29.05876399
 29.17576618 42.23141759 42.2870038  42.28700417 42.32899601 42.32899621
 42.43061212 42.51295237 42.51295247 61.14008904 82.53094916 82.79033674
 82.79033728 89.41376953]
   2 ( 0.000  0.500 -0.000)   [-68.18619553 -10.53787844  -5.52811719  -3.63668544  -3.63648671
  -3.63648661  -0.30982729  -0.11296329   0.21989572   0.21989928] [ 0.84008226  0.89747321  0.89747353  1.02787648  1.29051846  1.3367952
  1.33679621  1.444099    1.44409948  1.56657909  1.91433353  1.95324748
  1.97645373  1.97645456  2.07401952  2.07402006  2.27268605  2.30882138
  2.30882161  2.44509612  2.44509737  2.64142014  2.73897511  2.79595101
  2.79595202  2.83432978  2.83433027  2.86260217  3.12161499  3.32766455
  3.32766561  3.48679807  3.62066869  3.62067039  3.73095338  4.05337105
  4.19730496  4.25358778  4.2535885   4.46505211  4.46505386  4.54135427
  4.64201165  4.64201353  4.67509826  4.94959815  4.94959846  5.22855218
  5.23599177  5.23599221  5.44902181  5.44902266  5.79767998  6.3811626
  7.43453685  7.4345372   7.72198376  7.72198413  7.98748887 11.83045563
 12.2925099  12.29251047 12.3146958  17.15010149 17.51170507 17.51170553
 19.07014008 23.65739343 23.66450525 23.66450527 23.66841211 23.67985928
 23.67985954 23.68631547 28.89984705 28.89984712 29.05876374 29.05876398
 29.17576618 42.23141759 42.2870038  42.28700417 42.32899601 42.32899621
 42.43061212 42.51295236 42.5129525  61.14008904 82.53094916 82.79033674
 82.79033728 89.41376953]
   3 ( 0.000  0.500  0.500)   [-68.18619566 -10.53791382  -5.52810991  -3.63665407  -3.63657317
  -3.6365731   -0.24087564  -0.08310657   0.123022     0.12302386] [ 0.64648765  0.77352082  1.22719965  1.22720147  1.27225677  1.45246861
  1.52283916  1.52283918  1.57441817  1.59663126  1.77466913  1.77466982
  1.8067359   1.90293659  1.96623865  1.96623936  2.03039355  2.10503485
  2.39498497  2.42215683  2.42215829  2.57843188  2.77165263  2.82022801
  2.82022896  2.88675883  2.9140569   3.10434995  3.15426247  3.15426275
  3.3307515   3.33075162  3.35388114  3.49412201  3.70842536  4.11821488
  4.11821507  4.14945196  4.40064871  4.40064988  4.40129356  4.48829765
  4.69684066  4.80322848  4.80323076  5.0850544   5.11757004  5.12857719
  5.28108941  5.28109125  5.52179627  5.52179661  5.65378215  6.03346645
  7.37754492  7.41593705  7.70424548  7.87471735  7.87471771 11.99227883
 12.27258244 12.37637123 12.37637171 17.01280231 17.5302663  17.53026669
 18.81326286 23.65898613 23.66764826 23.66764853 23.66842486 23.67563865
 23.68048592 23.68048597 28.88349289 28.90250066 29.01551073 29.1529426
 29.15294275 42.2628724  42.30479483 42.30479525 42.32579682 42.40252175
 42.40921241 42.48603158 42.48603178 61.13911656 82.44092595 82.80113925
 82.80113966 89.12124608]
   4 ( 0.500  0.000  0.000)   [-68.18619553 -10.53787844  -5.52811719  -3.63668544  -3.63648671
  -3.63648661  -0.30982729  -0.11296329   0.21989572   0.21989928] [ 0.84008226  0.89747321  0.89747353  1.02787648  1.29051846  1.3367952
  1.33679621  1.444099    1.44409948  1.56657909  1.91433353  1.95324748
  1.97645373  1.97645456  2.07401952  2.07402006  2.27268605  2.30882139
  2.30882158  2.44509612  2.44509736  2.64142014  2.7389751   2.79595101
  2.79595202  2.83432979  2.83433025  2.86260217  3.12161499  3.32766452
  3.32766562  3.48679804  3.6206685   3.62066962  3.73095338  4.05337105
  4.19730496  4.25358776  4.2535885   4.46505205  4.46505387  4.54135426
  4.64201169  4.64201337  4.67509823  4.94959798  4.9495985   5.22855218
  5.23599167  5.23599224  5.44902184  5.44902228  5.79767996  6.38116259
  7.43453687  7.43453712  7.72198357  7.72198418  7.98748886 11.83045563
 12.29250983 12.29251049 12.3146958  17.15010149 17.51170507 17.51170553
 19.07014008 23.65739343 23.66450525 23.66450527 23.66841211 23.67985928
 23.67985955 23.68631547 28.89984705 28.89984711 29.05876373 29.05876398
 29.17576618 42.23141759 42.2870038  42.28700417 42.32899601 42.32899621
 42.43061212 42.51295236 42.51295248 61.14008904 82.53094916 82.79033674
 82.79033728 89.41376953]
   5 ( 0.500  0.000  0.500)   [-68.18619566 -10.53791382  -5.52810991  -3.63665407  -3.63657317
  -3.6365731   -0.24087564  -0.08310657   0.123022     0.12302386] [ 0.64648765  0.77352082  1.22719965  1.22720147  1.27225677  1.45246861
  1.52283916  1.52283918  1.57441817  1.59663126  1.77466913  1.77466982
  1.8067359   1.90293659  1.96623865  1.96623935  2.03039355  2.10503486
  2.39498497  2.42215682  2.42215828  2.57843188  2.77165264  2.82022801
  2.82022895  2.88675883  2.9140569   3.10434997  3.15426243  3.15426272
  3.3307515   3.33075161  3.35388114  3.49412181  3.70842536  4.11821486
  4.11821506  4.14945197  4.40064871  4.40064988  4.40129355  4.48829765
  4.69684065  4.80322847  4.80323074  5.08505438  5.11757004  5.12857719
  5.28108936  5.28109119  5.52179626  5.5217966   5.65378215  6.03346626
  7.37754492  7.41593705  7.70424547  7.87471735  7.8747177  11.99227883
 12.27258243 12.37637122 12.37637171 17.01280231 17.53026629 17.53026669
 18.81326284 23.65898613 23.66764826 23.66764853 23.66842486 23.67563865
 23.68048592 23.68048597 28.88349289 28.90250066 29.01551073 29.1529426
 29.15294275 42.2628724  42.30479483 42.30479525 42.32579682 42.40252175
 42.40921241 42.48603158 42.48603177 61.13911656 82.44092595 82.80113925
 82.80113966 89.12124607]
   6 ( 0.500  0.500  0.000)   [-68.18619566 -10.53791382  -5.52810991  -3.63665407  -3.63657317
  -3.6365731   -0.24087564  -0.08310657   0.123022     0.12302386] [ 0.64648765  0.77352082  1.22719965  1.22720147  1.27225677  1.45246861
  1.52283916  1.52283918  1.57441817  1.59663126  1.77466913  1.77466982
  1.80673591  1.90293658  1.96623865  1.96623935  2.03039355  2.10503486
  2.39498497  2.42215683  2.42215829  2.57843188  2.77165264  2.82022801
  2.82022895  2.88675883  2.9140569   3.10434998  3.15426245  3.15426273
  3.3307515   3.33075162  3.35388114  3.49412174  3.70842536  4.11821487
  4.11821506  4.14945198  4.40064871  4.40064988  4.40129354  4.48829765
  4.69684064  4.80322848  4.80323075  5.08505437  5.11757004  5.12857719
  5.28108938  5.28109121  5.52179626  5.5217966   5.65378215  6.0334662
  7.37754492  7.41593705  7.70424547  7.87471735  7.8747177  11.99227883
 12.27258242 12.37637122 12.37637171 17.01280231 17.53026629 17.53026669
 18.81326283 23.65898613 23.66764826 23.66764853 23.66842486 23.67563865
 23.68048592 23.68048597 28.88349289 28.90250066 29.01551073 29.1529426
 29.15294275 42.2628724  42.30479483 42.30479525 42.32579682 42.40252175
 42.40921241 42.48603158 42.48603178 61.13911656 82.44092595 82.80113925
 82.80113966 89.12124607]
   7 ( 0.500  0.500  0.500)   [-68.18619553 -10.53787844  -5.52811719  -3.63668554  -3.63648662
  -3.63648662  -0.30982784  -0.11296189   0.21989567   0.21989567] [ 0.84008221  0.89747329  0.89747329  1.02787765  1.29052089  1.3367963
  1.3367963   1.44409931  1.44409932  1.56658045  1.91433277  1.95324716
  1.976454    1.976454    2.07402017  2.07402017  2.2726857   2.30882123
  2.30882126  2.44509478  2.44509479  2.64141803  2.73897506  2.7959519
  2.7959519   2.83433075  2.83433077  2.86260412  3.12161447  3.32766463
  3.32766465  3.48679637  3.62066924  3.62067038  3.73095395  4.05337156
  4.19730532  4.25358786  4.25358788  4.46505477  4.46505483  4.54135676
  4.64201176  4.64201189  4.67509874  4.94959897  4.94959911  5.22854989
  5.23599044  5.23599052  5.44902273  5.44902314  5.79768073  6.38116293
  7.43453649  7.43453656  7.72198422  7.72198439  7.98748939 11.83045585
 12.29250982 12.29250988 12.31469611 17.15010076 17.5117054  17.5117054
 19.07014057 23.65739308 23.66450526 23.66450526 23.66841237 23.67985962
 23.67985962 23.68631514 28.89984691 28.89984691 29.05876394 29.05876395
 29.17576638 42.23141768 42.28700379 42.28700379 42.32899635 42.32899635
 42.43061173 42.51295251 42.51295253 61.14008904 82.53094863 82.79033726
 82.79033726 89.41376955]
    CPU time for get_k_kpts: make_kpt ki>=kj (0,*)      3.36 sec, wall time      0.11 sec
    CPU time for get_k_kpts: make_kpt ki>=kj (1,*)      8.77 sec, wall time      0.28 sec
    CPU time for get_k_kpts: make_kpt ki>=kj (2,*)     11.66 sec, wall time      0.37 sec
    CPU time for get_k_kpts: make_kpt ki>=kj (3,*)     15.03 sec, wall time      0.48 sec
    CPU time for get_k_kpts: make_kpt ki>=kj (4,*)     20.39 sec, wall time      0.65 sec
    CPU time for get_k_kpts: make_kpt ki>=kj (5,*)     26.64 sec, wall time      0.85 sec
    CPU time for get_k_kpts: make_kpt ki>=kj (6,*)     29.67 sec, wall time      0.93 sec
    CPU time for get_k_kpts: make_kpt ki>=kj (7,*)     31.62 sec, wall time      0.99 sec
Monkhorst pack size [2 2 2] ew_eta 2.524363791145886 ew_cut 2.788138014809477
Ewald components = 0, -1.42444163786916, 1.28500458605009
    CPU time for get_j pass 1     16.03 sec, wall time      0.55 sec
    CPU time for get_j pass 2      5.98 sec, wall time      0.29 sec
    CPU time for vj and vk    174.10 sec, wall time      5.66 sec
Ewald components = 9.00674411881527e-134, -644.974612150364, 572.081161138653
E1 = (-317.61096003474523-1.1117481215865595e-15j)  E_coul = (63.66260839224605+2.4488837819742194e-17j)
cycle= 4 E= -326.841802654211  delta_E= -0.000228  |g|= 0.00773  |ddm|= 1.81
    CPU time for cycle= 4    179.53 sec, wall time      5.83 sec
diis-norm(errvec)=0.0279272
diis-c [-2.69290460e-04+0.00000000e+00j  2.48320463e-02+6.07178752e-29j
  2.19473409e-02+7.98339490e-29j -3.78117250e-01-8.63748033e-28j
  1.33133786e+00+7.23196209e-28j]
HOMO = 0.268487945163  LUMO = 0.646574323559
     k-point                  mo_energy
   0 ( 0.000  0.000  0.000)   [-68.18653363 -10.53813745  -5.52835113  -3.63666452  -3.6366643
  -3.6366643   -0.47868907   0.26848794   0.26848794   0.26848795] [ 0.89430917  0.90725776  0.90725783  0.90725783  1.19858659  1.19858659
  1.28073094  1.30705331  1.30705331  1.30705355  1.58629324  2.03790618
  2.03790649  2.03790649  2.29520902  2.29520902  2.29520916  2.40140096
  2.40140096  2.5372289   2.5372289   2.53722935  2.99233566  2.99233566
  2.99233572  3.13153664  3.13153664  3.16113118  3.16113131  3.16113131
  3.21432852  3.43004346  3.43004355  3.43004355  3.48766113  4.05783594
  4.05783594  4.05783601  4.37572369  4.37572369  4.37572388  4.46113228
  4.79517616  4.79517626  4.79517626  4.87385877  4.87385877  5.2505329
  5.25053308  5.25053308  5.30519819  6.09149554  6.09149568  6.09149569
  7.3660385   7.3660385   7.60286257  7.60286284  7.60286284 11.34256261
 12.67127105 12.6712713  12.6712713  17.65873311 17.68656497 17.6865651
 17.6865651  23.65757576 23.65757576 23.6575759  23.67980069 23.67980069
 23.67980072 23.72149047 28.88764591 28.88764591 28.99371171 28.99371179
 28.99371179 42.31397959 42.31397959 42.43763916 42.43763926 42.43763926
 43.00466425 43.00466435 43.00466435 59.93671832 82.91032486 82.91032496
 82.91032496 87.06289353]
   1 (-0.000 -0.000  0.500)   [-68.18653403 -10.53823911  -5.52833119  -3.63694016  -3.6367421
  -3.6367419   -0.30967177  -0.1128123    0.2199854    0.21998543] [ 0.84008388  0.89761068  0.89761094  1.02782913  1.29055255  1.33678252
  1.33678274  1.44408588  1.44408613  1.56646231  1.91433192  1.95315375
  1.976408    1.97640811  2.07404592  2.07404604  2.272678    2.30882849
  2.30882856  2.44509114  2.44509142  2.64140849  2.73890885  2.79590411
  2.79590411  2.83436615  2.83436627  2.86260214  3.12162058  3.32764515
  3.32764545  3.48679777  3.62070528  3.62070712  3.73096378  4.05348656
  4.19731554  4.25367445  4.25367463  4.46508643  4.46508657  4.54144167
  4.64207943  4.6420797   4.67508096  4.94962697  4.94962713  5.22860602
  5.23602355  5.23602363  5.44910291  5.4491035   5.79769963  6.3811782
  7.43436087  7.43436094  7.72181135  7.72181151  7.9873279  11.83027283
 12.29230687 12.29230704 12.31450227 17.14984246 17.51144654 17.51144667
 19.0699394  23.6571052  23.66421695 23.66421697 23.66812425 23.67957154
 23.67957164 23.68602744 28.89953262 28.89953266 29.05845057 29.05845065
 29.17545399 42.23110243 42.28665453 42.28665463 42.32863113 42.32863114
 42.43025166 42.51261489 42.51261495 61.13981289 82.53036491 82.78975325
 82.78975334 89.41316431]
   2 ( 0.000  0.500 -0.000)   [-68.18653403 -10.53823911  -5.52833119  -3.63694016  -3.6367421
  -3.6367419   -0.30967177  -0.1128123    0.2199854    0.21998543] [ 0.84008388  0.89761068  0.89761094  1.02782913  1.29055255  1.33678252
  1.33678274  1.44408588  1.44408613  1.56646231  1.91433192  1.95315375
  1.976408    1.9764081   2.07404592  2.07404604  2.272678    2.30882847
  2.30882861  2.44509115  2.44509141  2.64140849  2.73890884  2.79590411
  2.79590411  2.83436614  2.8343663   2.86260213  3.12162058  3.32764514
  3.32764548  3.48679773  3.62070557  3.62070762  3.73096377  4.05348656
  4.19731554  4.25367444  4.25367465  4.46508635  4.46508669  4.54144167
  4.64207954  4.64207969  4.67508093  4.94962694  4.94962726  5.228606
  5.23602351  5.23602373  5.44910296  5.44910374  5.79769962  6.38117814
  7.43436082  7.43436104  7.72181123  7.72181174  7.98732789 11.83027283
 12.29230682 12.29230713 12.31450227 17.14984246 17.51144654 17.51144667
 19.06993939 23.6571052  23.66421695 23.66421697 23.66812425 23.67957154
 23.67957164 23.68602744 28.89953263 28.89953265 29.05845056 29.05845067
 29.17545399 42.23110242 42.28665453 42.28665463 42.32863113 42.32863114
 42.43025166 42.51261487 42.51261498 61.13981289 82.53036491 82.78975325
 82.78975334 89.4131643 ]
   3 ( 0.000  0.500  0.500)   [-68.18653416 -10.53827437  -5.52832412  -3.63690864  -3.63682848
  -3.63682833  -0.24071967  -0.08296301   0.12313346   0.12313349] [ 0.64657432  0.77352556  1.2272369   1.22723707  1.27231502  1.45246532
  1.52279527  1.52279556  1.57421696  1.5967282   1.77463732  1.77463744
  1.80672103  1.90289776  1.96626673  1.96626687  2.03037571  2.10499435
  2.39494831  2.42217846  2.42217863  2.57844895  2.771659    2.82020864
  2.82020873  2.88674236  2.91404907  3.10435558  3.15427938  3.15427947
  3.33068132  3.33068141  3.35387722  3.49407793  3.7084776   4.11828934
  4.11828937  4.14946191  4.40072166  4.40072169  4.40129597  4.48844932
  4.6968704   4.8032721   4.80327227  5.08509617  5.11760049  5.12863955
  5.28115057  5.28115074  5.52180082  5.52180098  5.65387845  6.03346336
  7.3773562   7.41575724  7.70409251  7.8745422   7.87454232 11.99210426
 12.27237668 12.37617123 12.37617146 17.012543   17.53000829 17.53000838
 18.81305766 23.65869766 23.66736038 23.66736047 23.66813729 23.67535062
 23.68019768 23.6801977  28.88317771 28.90218574 29.01519824 29.15262938
 29.15262944 42.26253208 42.30442026 42.30442032 42.32542131 42.40218398
 42.40883812 42.48573042 42.48573049 61.1388396  82.44034162 82.80055572
 82.80055578 89.12064065]
   4 ( 0.500  0.000  0.000)   [-68.18653403 -10.53823911  -5.52833119  -3.63694016  -3.6367421
  -3.6367419   -0.30967177  -0.1128123    0.2199854    0.21998543] [ 0.84008388  0.89761068  0.89761094  1.02782913  1.29055255  1.33678252
  1.33678274  1.44408588  1.44408613  1.56646231  1.91433192  1.95315375
  1.976408    1.9764081   2.07404592  2.07404604  2.272678    2.30882847
  2.30882858  2.44509114  2.44509141  2.64140849  2.73890884  2.79590411
  2.79590411  2.83436614  2.83436628  2.86260212  3.12162057  3.32764515
  3.32764545  3.48679771  3.62070554  3.62070668  3.73096377  4.05348656
  4.19731553  4.25367444  4.25367463  4.46508636  4.46508663  4.54144167
  4.64207948  4.64207963  4.67508091  4.94962696  4.94962711  5.22860601
  5.23602352  5.23602365  5.44910297  5.44910338  5.79769959  6.38117813
  7.43436084  7.43436096  7.72181127  7.72181157  7.98732788 11.83027282
 12.29230684 12.29230707 12.31450226 17.14984246 17.51144654 17.51144667
 19.06993938 23.6571052  23.66421695 23.66421697 23.66812425 23.67957154
 23.67957164 23.68602744 28.89953263 28.89953265 29.05845056 29.05845066
 29.17545398 42.23110242 42.28665453 42.28665463 42.32863113 42.32863114
 42.43025166 42.51261488 42.51261496 61.13981289 82.53036491 82.78975325
 82.78975334 89.4131643 ]
   5 ( 0.500  0.000  0.500)   [-68.18653416 -10.53827437  -5.52832412  -3.63690864  -3.63682848
  -3.63682833  -0.24071967  -0.08296301   0.12313346   0.12313349] [ 0.64657432  0.77352556  1.2272369   1.22723707  1.27231502  1.45246532
  1.52279527  1.52279556  1.57421696  1.5967282   1.77463732  1.77463744
  1.80672103  1.90289776  1.96626673  1.96626687  2.03037571  2.10499435
  2.39494831  2.42217845  2.42217862  2.57844895  2.77165901  2.82020864
  2.82020873  2.88674236  2.91404907  3.1043556   3.15427934  3.15427944
  3.33068131  3.33068141  3.35387722  3.49407773  3.70847759  4.11828932
  4.11828935  4.14946192  4.40072166  4.40072169  4.40129596  4.48844932
  4.69687039  4.80327208  4.80327226  5.08509615  5.11760048  5.12863955
  5.28115051  5.28115068  5.5218008   5.52180097  5.65387844  6.03346317
  7.3773562   7.41575725  7.70409251  7.8745422   7.87454232 11.99210426
 12.27237667 12.37617122 12.37617146 17.012543   17.53000829 17.53000837
 18.81305764 23.65869766 23.66736038 23.66736047 23.66813729 23.67535062
 23.68019768 23.6801977  28.88317771 28.90218574 29.01519824 29.15262938
 29.15262944 42.26253208 42.30442026 42.30442032 42.32542131 42.40218398
 42.40883812 42.48573041 42.48573049 61.1388396  82.44034162 82.80055572
 82.80055578 89.12064064]
   6 ( 0.500  0.500  0.000)   [-68.18653416 -10.53827437  -5.52832412  -3.63690864  -3.63682848
  -3.63682833  -0.24071967  -0.08296301   0.12313346   0.12313349] [ 0.64657432  0.77352556  1.2272369   1.22723707  1.27231502  1.45246532
  1.52279527  1.52279556  1.57421696  1.5967282   1.77463732  1.77463744
  1.80672103  1.90289776  1.96626673  1.96626687  2.03037571  2.10499435
  2.3949483   2.42217845  2.42217862  2.57844895  2.77165901  2.82020864
  2.82020873  2.88674236  2.91404907  3.10435561  3.15427936  3.15427945
  3.33068132  3.33068141  3.35387722  3.49407765  3.70847759  4.11828933
  4.11828936  4.14946193  4.40072166  4.40072169  4.40129595  4.48844932
  4.69687039  4.80327209  4.80327226  5.08509614  5.11760049  5.12863955
  5.28115054  5.2811507   5.52180081  5.52180097  5.65387845  6.03346311
  7.3773562   7.41575725  7.7040925   7.8745422   7.87454232 11.99210426
 12.27237667 12.37617123 12.37617146 17.012543   17.53000829 17.53000837
 18.81305763 23.65869766 23.66736038 23.66736047 23.66813729 23.67535062
 23.68019768 23.6801977  28.88317771 28.90218574 29.01519824 29.15262938
 29.15262944 42.26253208 42.30442026 42.30442032 42.32542131 42.40218398
 42.40883812 42.48573041 42.48573049 61.1388396  82.44034162 82.80055572
 82.80055578 89.12064064]
   7 ( 0.500  0.500  0.500)   [-68.18653403 -10.53823911  -5.52833119  -3.63694036  -3.6367419
  -3.6367419   -0.30967158  -0.11281257   0.21998542   0.21998542] [ 0.84008367  0.89761099  0.89761099  1.02782974  1.29055275  1.33678244
  1.33678244  1.44408586  1.44408586  1.56646177  1.91433204  1.95315361
  1.97640801  1.97640801  2.07404593  2.07404593  2.27267806  2.30882865
  2.30882868  2.44509157  2.44509158  2.64140896  2.73890888  2.79590391
  2.79590391  2.83436603  2.83436604  2.8626021   3.12162051  3.32764548
  3.3276455   3.4867979   3.62070633  3.62070747  3.73096363  4.05348665
  4.19731534  4.25367443  4.25367444  4.46508651  4.46508657  4.54144147
  4.64207963  4.64207976  4.67508094  4.94962704  4.94962718  5.22860601
  5.23602364  5.23602372  5.44910342  5.44910382  5.79769979  6.38117806
  7.43436108  7.43436115  7.72181138  7.72181155  7.98732769 11.83027211
 12.29230715 12.2923072  12.31450271 17.14984234 17.51144667 17.51144667
 19.06993937 23.65710532 23.66421696 23.66421696 23.66812416 23.67957152
 23.67957152 23.68602755 28.89953272 28.89953272 29.05845058 29.05845059
 29.17545391 42.23110232 42.28665458 42.28665458 42.32863118 42.32863118
 42.43025157 42.51261498 42.512615   61.1398129  82.53036482 82.78975334
 82.78975334 89.4131643 ]
    CPU time for get_k_kpts: make_kpt ki>=kj (0,*)      2.65 sec, wall time      0.09 sec
    CPU time for get_k_kpts: make_kpt ki>=kj (1,*)     11.11 sec, wall time      0.35 sec
    CPU time for get_k_kpts: make_kpt ki>=kj (2,*)     13.70 sec, wall time      0.44 sec
    CPU time for get_k_kpts: make_kpt ki>=kj (3,*)     14.76 sec, wall time      0.47 sec
    CPU time for get_k_kpts: make_kpt ki>=kj (4,*)     18.22 sec, wall time      0.57 sec
    CPU time for get_k_kpts: make_kpt ki>=kj (5,*)     22.73 sec, wall time      0.71 sec
    CPU time for get_k_kpts: make_kpt ki>=kj (6,*)     27.62 sec, wall time      0.87 sec
    CPU time for get_k_kpts: make_kpt ki>=kj (7,*)     31.62 sec, wall time      0.99 sec
Monkhorst pack size [2 2 2] ew_eta 2.524363791145886 ew_cut 2.788138014809477
Ewald components = 0, -1.42444163786916, 1.28500458605009
    CPU time for get_j pass 1     13.45 sec, wall time      0.43 sec
    CPU time for get_j pass 2      5.98 sec, wall time      0.29 sec
    CPU time for vj and vk    164.62 sec, wall time      5.30 sec
Ewald components = 9.00674411881527e-134, -644.974612150364, 572.081161138653
E1 = (-317.6131976125917-1.1115279114538021e-15j)  E_coul = (63.66483875129896+2.4555574631478972e-17j)
cycle= 5 E= -326.841809873004  delta_E= -7.22e-06  |g|= 0.00185  |ddm|= 0.266
    CPU time for cycle= 5    168.37 sec, wall time      5.42 sec
diis-norm(errvec)=0.0061905
diis-c [-1.30847249e-05-1.12103877e-44j -3.83610302e-03+3.49314554e-30j
 -4.94746763e-03+4.18318345e-30j  6.71218302e-02-5.99118172e-29j
 -3.94839958e-01+3.30181976e-28j  1.33650170e+00-2.77946488e-28j]
HOMO = 0.268419177909  LUMO = 0.646585034605
     k-point                  mo_energy
   0 ( 0.000  0.000  0.000)   [-68.1860802  -10.5381878   -5.52803421  -3.6363447   -3.6363447
  -3.63634467  -0.47873863   0.26841915   0.26841918   0.26841918] [ 0.89425831  0.90729688  0.90729688  0.90729694  1.19861453  1.19861453
  1.28073986  1.30706462  1.30706471  1.30706471  1.58628026  2.03793378
  2.03793378  2.03793379  2.29522878  2.29522878  2.29522878  2.40144288
  2.40144288  2.53724702  2.53724704  2.53724704  2.99235034  2.99235037
  2.99235037  3.13154695  3.13154695  3.16114793  3.16114801  3.16114801
  3.21435394  3.43007144  3.43007144  3.43007145  3.4877015   4.05780626
  4.05780626  4.05780634  4.37567765  4.37567765  4.37567769  4.46107829
  4.7951439   4.7951439   4.79514391  4.87378341  4.87378341  5.25056047
  5.25056047  5.25056057  5.30517782  6.09146762  6.09146779  6.0914678
  7.3662906   7.3662906   7.603096    7.60309602  7.60309602 11.34281508
 12.67153088 12.67153091 12.67153091 17.658656   17.68650136 17.68650136
 17.6865014  23.65790331 23.65790331 23.65790335 23.6801279  23.6801279
 23.68012791 23.72181741 28.88800466 28.88800466 28.99406968 28.99406969
[...]
 19.06983401 23.65747608 23.66458764 23.66458765 23.66849504 23.67994213
 23.67994216 23.68639775 28.89992588 28.89992588 29.05884319 29.05884324
 29.17584588 42.23141243 42.28673814 42.28673815 42.32861226 42.32861227
 42.43025801 42.51277774 42.51277778 61.14020698 82.53034739 82.78973548
 82.78973549 89.41316586]
   3 ( 0.000  0.500  0.500)   [-68.18606654 -10.53836249  -5.52796475  -3.63654719  -3.63646695
  -3.63646695  -0.24080446  -0.08299854   0.12310697   0.123107  ] [ 0.64658959  0.77352822  1.22724514  1.22724518  1.27227639  1.4525113
  1.52281959  1.5228196   1.57424881  1.59674489  1.7746607   1.77466072
  1.80673416  1.9029295   1.96627164  1.96627166  2.03037669  2.1050546
  2.39501962  2.42216119  2.42216121  2.57846118  2.77164275  2.82025251
  2.82025253  2.88680533  2.91404624  3.1043503   3.15428446  3.15428447
  3.33074513  3.33074513  3.35386791  3.49405647  3.70849511  4.11823085
  4.11823086  4.14941653  4.40070946  4.40070946  4.40135089  4.48838358
  4.69682137  4.80327669  4.80327671  5.08510284  5.11758468  5.12856169
  5.28108604  5.28108606  5.52181081  5.52181081  5.65382208  6.03338583
  7.37764814  7.41603526  7.70434943  7.8748127   7.87481273 11.99240002
 12.27267631 12.37647351 12.37647355 17.01244604 17.52991031 17.52991033
 18.81295512 23.65906837 23.66773101 23.66773104 23.66850815 23.67572122
 23.68056808 23.68056809 28.88357118 28.90257919 29.01559026 29.15302179
 29.15302181 42.2626827  42.30433201 42.30433203 42.32533205 42.40234974
 42.40874927 42.48613551 42.48613553 61.13923517 82.4403239  82.80053775
 82.80053776 89.12064258]
   4 ( 0.500  0.000  0.000)   [-68.18606641 -10.53832722  -5.52797178  -3.6365787   -3.63638059
  -3.63638058  -0.30973542  -0.11283802   0.21992799   0.21992806] [ 0.84005962  0.89765721  0.89765723  1.02781178  1.29052884  1.33680099
  1.33680102  1.4441216   1.44412162  1.56648914  1.91432693  1.95324549
  1.97643086  1.97643088  2.07406177  2.07406179  2.27266825  2.30883744
  2.30883747  2.44512356  2.44512362  2.64143954  2.73892483  2.79593983
  2.79593984  2.83436976  2.83436977  2.86259518  3.12166591  3.32767521
  3.32767527  3.48677906  3.62071348  3.62071461  3.730955    4.05343203
  4.19737934  4.25361552  4.25361554  4.46511234  4.46511243  4.54141044
  4.64202359  4.64202371  4.67508851  4.94959603  4.94959616  5.22854056
  5.23600021  5.23600029  5.44904517  5.44904557  5.7977178   6.38108748
  7.43463799  7.43463806  7.72208184  7.72208202  7.98758548 11.83057044
 12.2926092  12.29260928 12.31479925 17.14974816 17.51135015 17.51135018
 19.06983401 23.65747608 23.66458764 23.66458765 23.66849504 23.67994213
 23.67994215 23.68639775 28.89992587 28.89992588 29.05884319 29.05884322
 29.17584588 42.23141243 42.28673814 42.28673815 42.32861226 42.32861227
 42.43025801 42.51277774 42.51277776 61.14020698 82.53034739 82.78973548
 82.78973549 89.41316586]
   5 ( 0.500  0.000  0.500)   [-68.18606654 -10.53836249  -5.52796475  -3.63654719  -3.63646695
  -3.63646695  -0.24080446  -0.08299854   0.12310697   0.123107  ] [ 0.64658959  0.77352822  1.22724514  1.22724518  1.27227639  1.4525113
  1.52281959  1.5228196   1.57424881  1.59674489  1.7746607   1.77466072
  1.80673416  1.9029295   1.96627164  1.96627166  2.03037669  2.1050546
  2.39501961  2.42216118  2.4221612   2.57846118  2.77164276  2.8202525
  2.82025253  2.88680533  2.91404624  3.10435031  3.15428441  3.15428445
  3.33074512  3.33074513  3.35386791  3.49405627  3.70849511  4.11823083
  4.11823085  4.14941654  4.40070946  4.40070946  4.40135088  4.48838358
  4.69682137  4.80327668  4.8032767   5.08510282  5.11758468  5.12856169
  5.28108597  5.28108602  5.52181079  5.5218108   5.65382207  6.03338564
  7.37764814  7.41603527  7.70434942  7.8748127   7.87481273 11.99240002
 12.2726763  12.3764735  12.37647354 17.01244604 17.52991031 17.52991032
 18.8129551  23.65906837 23.66773101 23.66773104 23.66850815 23.67572122
 23.68056808 23.68056809 28.88357118 28.90257919 29.01559026 29.15302179
 29.1530218  42.2626827  42.30433201 42.30433203 42.32533205 42.40234974
 42.40874927 42.48613551 42.48613553 61.13923516 82.4403239  82.80053775
 82.80053776 89.12064258]
   6 ( 0.500  0.500  0.000)   [-68.18606654 -10.53836249  -5.52796475  -3.63654719  -3.63646695
  -3.63646695  -0.24080446  -0.08299854   0.12310697   0.123107  ] [ 0.64658959  0.77352822  1.22724514  1.22724518  1.27227639  1.4525113
  1.52281959  1.5228196   1.57424881  1.59674489  1.7746607   1.77466072
  1.80673416  1.9029295   1.96627164  1.96627166  2.03037669  2.10505461
  2.39501961  2.42216118  2.4221612   2.57846118  2.77164276  2.8202525
  2.82025253  2.88680533  2.91404624  3.10435032  3.15428443  3.15428445
  3.33074513  3.33074513  3.35386791  3.49405619  3.70849511  4.11823084
  4.11823085  4.14941655  4.40070946  4.40070946  4.40135087  4.48838358
  4.69682136  4.80327668  4.8032767   5.08510282  5.11758468  5.12856169
  5.281086    5.28108603  5.5218108   5.52181081  5.65382208  6.03338558
  7.37764814  7.41603527  7.70434942  7.8748127   7.87481273 11.99240002
 12.2726763  12.3764735  12.37647354 17.01244604 17.52991031 17.52991033
 18.81295509 23.65906837 23.66773101 23.66773104 23.66850815 23.67572122
 23.68056808 23.68056809 28.88357118 28.90257919 29.01559026 29.15302179
 29.1530218  42.2626827  42.30433201 42.30433203 42.32533205 42.40234974
 42.40874927 42.48613551 42.48613553 61.13923517 82.4403239  82.80053775
 82.80053776 89.12064257]
   7 ( 0.500  0.500  0.500)   [-68.18606641 -10.53832722  -5.52797178  -3.63657871  -3.63638058
  -3.63638058  -0.30973541  -0.11283806   0.21992806   0.21992806] [ 0.84005959  0.89765722  0.89765722  1.02781182  1.2905288   1.336801
  1.336801    1.44412159  1.4441216   1.5664891   1.91432696  1.95324549
  1.97643087  1.97643087  2.07406176  2.07406177  2.27266825  2.30883748
  2.30883751  2.44512365  2.44512366  2.64143962  2.73892482  2.79593981
  2.79593981  2.83436974  2.83436975  2.86259516  3.1216659   3.32767526
  3.32767527  3.48677911  3.62071439  3.62071554  3.73095499  4.05343201
  4.1973793   4.25361555  4.25361556  4.4651124   4.46511246  4.54141043
  4.6420237   4.64202383  4.67508851  4.94959613  4.94959627  5.22854056
  5.23600028  5.23600036  5.44904549  5.4490459   5.79771783  6.38108751
  7.43463809  7.43463816  7.72208196  7.72208213  7.98758545 11.83057035
 12.29260929 12.29260935 12.3147993  17.14974819 17.51135015 17.51135015
 19.06983402 23.65747612 23.66458764 23.66458764 23.66849501 23.67994212
 23.67994212 23.68639778 28.8999259  28.8999259  29.0588432  29.05884321
 29.17584586 42.23141241 42.28673815 42.28673815 42.32861226 42.32861226
 42.43025802 42.51277776 42.51277778 61.14020698 82.53034741 82.78973548
 82.78973548 89.41316586]
    CPU time for get_k_kpts: make_kpt ki>=kj (0,*)      2.89 sec, wall time      0.09 sec
    CPU time for get_k_kpts: make_kpt ki>=kj (1,*)      8.70 sec, wall time      0.27 sec
    CPU time for get_k_kpts: make_kpt ki>=kj (2,*)     11.93 sec, wall time      0.37 sec
    CPU time for get_k_kpts: make_kpt ki>=kj (3,*)     16.48 sec, wall time      0.52 sec
    CPU time for get_k_kpts: make_kpt ki>=kj (4,*)     20.13 sec, wall time      0.63 sec
    CPU time for get_k_kpts: make_kpt ki>=kj (5,*)     23.95 sec, wall time      0.75 sec
    CPU time for get_k_kpts: make_kpt ki>=kj (6,*)     26.46 sec, wall time      0.83 sec
    CPU time for get_k_kpts: make_kpt ki>=kj (7,*)     29.74 sec, wall time      0.93 sec
Monkhorst pack size [2 2 2] ew_eta 2.524363791145886 ew_cut 2.788138014809477
Ewald components = 0, -1.42444163786916, 1.28500458605009
    CPU time for get_j pass 1     14.22 sec, wall time      0.45 sec
    CPU time for get_j pass 2      5.98 sec, wall time      0.29 sec
    CPU time for vj and vk    164.48 sec, wall time      5.26 sec
Ewald components = 9.00674411881527e-134, -644.974612150364, 572.081161138653
E1 = (-317.61417066199124-1.1114132868003337e-15j)  E_coul = (63.66581134502449+2.4612991010691823e-17j)
cycle= 7 E= -326.841810328678  delta_E= -1.45e-08  |g|= 6.39e-05  |ddm|= 0.00863
    CPU time for cycle= 7    167.86 sec, wall time      5.37 sec
HOMO = 0.268423670801  LUMO = 0.646589932559
     k-point                  mo_energy
   0 ( 0.000  0.000  0.000)   [-68.18603655 -10.53822247  -5.52798348  -3.63629395  -3.63629395
  -3.63629395  -0.47873434   0.26842363   0.26842367   0.26842367] [ 0.8942509   0.90729848  0.90729848  0.90729851  1.19862281  1.19862281
  1.28073804  1.30706561  1.30706562  1.30706562  1.58627754  2.0379334
  2.03793341  2.03793341  2.29523368  2.29523368  2.29523368  2.4014544
  2.4014544   2.53725471  2.53725471  2.53725473  2.99235266  2.99235267
  2.99235267  3.13154712  3.13154712  3.16115349  3.1611535   3.1611535
  3.21435788  3.43007445  3.43007445  3.43007445  3.4877136   4.05780356
  4.05780356  4.05780357  4.37567257  4.37567257  4.37567257  4.46106864
  4.79513621  4.79513621  4.79513621  4.87377165  4.87377165  5.25056644
  5.25056644  5.25056645  5.30517586  6.0914636   6.09146361  6.09146362
  7.36633576  7.36633576  7.6031385   7.60313852  7.60313852 11.34285563
 12.67157323 12.67157325 12.67157325 17.65862883 17.68647169 17.68647169
 17.6864717  23.65795452 23.65795452 23.65795454 23.68017902 23.68017902
 23.68017902 23.72186853 28.88805252 28.88805252 28.99411751 28.99411752
 28.99411752 42.31389334 42.31389334 42.43755797 42.43755797 42.43755798
 43.00508087 43.00508088 43.00508088 59.93712698 82.91031098 82.91031098
 82.91031099 87.06289853]
   1 (-0.000 -0.000  0.500)   [-68.18603695 -10.53832413  -5.5279637   -3.6365696   -3.63637149
  -3.63637149  -0.3097353   -0.112838     0.2199282    0.21992822] [ 0.84006001  0.89765749  0.89765749  1.02781222  1.2905296   1.33680113
  1.33680113  1.44412223  1.44412223  1.56649017  1.91432709  1.9532458
  1.97643123  1.97643124  2.07406192  2.07406192  2.27266808  2.30883792
  2.30883797  2.44512393  2.44512395  2.6414395   2.73892474  2.79593991
  2.79593991  2.83437026  2.83437028  2.86259556  3.12166641  3.32767559
  3.32767561  3.4867796   3.62071353  3.62071535  3.73095599  4.05343303
  4.19738094  4.25361685  4.25361687  4.46511353  4.46511365  4.54141167
  4.64202465  4.64202483  4.67508951  4.94959734  4.94959754  5.22854196
  5.23600155  5.23600168  5.44904669  5.44904732  5.79771892  6.38108887
  7.43464225  7.43464237  7.722086    7.72208625  7.98758955 11.83057683
 12.29261593 12.292616   12.31480582 17.14975094 17.51135291 17.51135293
 19.06983652 23.65748396 23.66459551 23.66459551 23.6685029  23.67995
 23.67995001 23.68640562 28.89993881 28.89993882 29.05885611 29.05885613
 29.17585876 42.23142743 42.28674632 42.28674632 42.32861738 42.32861738
 42.43026388 42.51278832 42.51278835 61.14022469 82.53035144 82.78973952
 82.78973953 89.41317017]
   2 ( 0.000  0.500 -0.000)   [-68.18603695 -10.53832413  -5.5279637   -3.6365696   -3.63637149
  -3.63637149  -0.3097353   -0.112838     0.2199282    0.21992822] [ 0.84006001  0.89765749  0.89765749  1.02781222  1.2905296   1.33680113
  1.33680113  1.44412223  1.44412223  1.56649017  1.91432709  1.9532458
  1.97643123  1.97643125  2.07406192  2.07406192  2.27266807  2.30883793
  2.30883798  2.44512394  2.44512394  2.6414395   2.73892473  2.79593991
  2.79593992  2.83437026  2.83437029  2.86259554  3.12166641  3.32767558
  3.32767563  3.48677956  3.6207138   3.62071587  3.73095599  4.05343303
  4.19738094  4.25361686  4.25361688  4.46511356  4.46511366  4.54141166
  4.64202466  4.64202491  4.67508948  4.94959736  4.94959762  5.22854195
  5.23600157  5.23600172  5.44904677  5.44904751  5.79771891  6.38108882
  7.43464227  7.4346424   7.72208602  7.72208634  7.98758954 11.83057683
 12.29261593 12.29261604 12.31480582 17.14975094 17.51135291 17.51135293
 19.06983651 23.65748396 23.66459551 23.66459552 23.6685029  23.67995
 23.67995001 23.68640562 28.89993882 28.89993882 29.05885611 29.05885614
 29.17585876 42.23142743 42.28674632 42.28674632 42.32861738 42.32861738
 42.43026388 42.51278833 42.51278836 61.14022469 82.53035144 82.78973952
 82.78973953 89.41317016]
   3 ( 0.000  0.500  0.500)   [-68.18603708 -10.5383594   -5.52795668  -3.63653808  -3.63645785
  -3.63645785  -0.24080418  -0.08299903   0.1231072    0.12310721] [ 0.64658993  0.77352886  1.22724562  1.22724564  1.27227752  1.45251116
  1.5228204   1.52282041  1.57424971  1.5967452   1.77466071  1.77466071
  1.80673402  1.90292975  1.96627168  1.96627168  2.03037705  2.10505447
  2.39501993  2.42216182  2.42216183  2.57846161  2.77164278  2.82025269
  2.8202527   2.88680546  2.91404651  3.10435062  3.15428479  3.15428479
  3.33074541  3.33074542  3.35386824  3.49405663  3.70849605  4.11823219
  4.1182322   4.14941755  4.40071081  4.40071083  4.4013526   4.48838477
  4.69682246  4.80327815  4.80327816  5.08510437  5.11758569  5.12856292
  5.2810873   5.28108733  5.52181195  5.52181195  5.65382357  6.03338722
  7.37765252  7.41603951  7.70435354  7.87481686  7.87481687 11.99240626
 12.27268294 12.3764802  12.37648022 17.01244881 17.52991306 17.52991307
 18.81295764 23.65907624 23.66773889 23.6677389  23.66851602 23.67572909
 23.68057595 23.68057595 28.88358413 28.90259213 29.01560317 29.15303469
 29.15303469 42.2626929  42.30433503 42.30433504 42.32533504 42.40236041
 42.40875226 42.48615338 42.48615339 61.13925291 82.44032795 82.80054179
 82.8005418  89.12064688]
   4 ( 0.500  0.000  0.000)   [-68.18603695 -10.53832413  -5.5279637   -3.6365696   -3.63637149
  -3.63637149  -0.3097353   -0.112838     0.2199282    0.21992822] [ 0.84006001  0.89765749  0.89765749  1.02781222  1.2905296   1.33680113
  1.33680113  1.44412223  1.44412223  1.56649017  1.91432709  1.9532458
  1.97643123  1.97643124  2.07406192  2.07406192  2.27266807  2.30883793
  2.30883795  2.44512393  2.44512394  2.6414395   2.73892473  2.79593991
  2.79593992  2.83437026  2.83437028  2.86259553  3.12166641  3.32767558
  3.32767561  3.48677954  3.62071378  3.62071492  3.73095599  4.05343303
  4.19738094  4.25361685  4.25361687  4.46511356  4.46511362  4.54141166
  4.64202466  4.64202479  4.67508945  4.94959736  4.94959749  5.22854195
  5.23600157  5.23600165  5.44904677  5.44904717  5.79771888  6.3810888
  7.43464227  7.43464234  7.72208603  7.7220862   7.98758953 11.83057682
 12.29261593 12.29261599 12.31480581 17.14975094 17.51135291 17.51135293
 19.06983651 23.65748396 23.66459551 23.66459551 23.6685029  23.67995
 23.67995001 23.68640562 28.89993882 28.89993882 29.05885611 29.05885613
 29.17585876 42.23142743 42.28674632 42.28674632 42.32861738 42.32861738
 42.43026388 42.51278833 42.51278834 61.14022469 82.53035144 82.78973952
 82.78973953 89.41317016]
   5 ( 0.500  0.000  0.500)   [-68.18603708 -10.5383594   -5.52795668  -3.63653808  -3.63645785
  -3.63645785  -0.24080418  -0.08299903   0.1231072    0.12310721] [ 0.64658993  0.77352886  1.22724562  1.22724564  1.27227752  1.45251116
  1.5228204   1.52282041  1.57424971  1.5967452   1.7746607   1.77466071
  1.80673403  1.90292975  1.96627168  1.96627168  2.03037705  2.10505447
  2.39501993  2.42216181  2.42216182  2.57846161  2.77164279  2.82025268
  2.8202527   2.88680546  2.91404651  3.10435064  3.15428474  3.15428477
  3.33074541  3.33074542  3.35386824  3.49405643  3.70849605  4.11823217
  4.11823219  4.14941756  4.40071081  4.40071083  4.40135259  4.48838477
  4.69682245  4.80327813  4.80327815  5.08510436  5.11758569  5.12856292
  5.28108723  5.28108729  5.52181193  5.52181194  5.65382356  6.03338703
  7.37765252  7.41603951  7.70435353  7.87481685  7.87481687 11.99240626
 12.27268293 12.37648019 12.37648021 17.01244881 17.52991306 17.52991307
 18.81295762 23.65907623 23.66773889 23.6677389  23.66851602 23.67572909
 23.68057595 23.68057595 28.88358413 28.90259213 29.01560317 29.15303469
 29.15303469 42.2626929  42.30433503 42.30433504 42.32533504 42.40236041
 42.40875226 42.48615338 42.48615339 61.13925291 82.44032795 82.80054179
 82.8005418  89.12064687]
   6 ( 0.500  0.500  0.000)   [-68.18603708 -10.5383594   -5.52795668  -3.63653808  -3.63645785
  -3.63645785  -0.24080418  -0.08299903   0.1231072    0.12310721] [ 0.64658993  0.77352886  1.22724562  1.22724564  1.27227752  1.45251116
  1.5228204   1.52282041  1.57424971  1.5967452   1.7746607   1.77466071
  1.80673403  1.90292975  1.96627168  1.96627168  2.03037705  2.10505448
  2.39501993  2.42216182  2.42216182  2.57846161  2.77164279  2.82025269
  2.8202527   2.88680546  2.91404651  3.10435065  3.15428476  3.15428478
  3.33074541  3.33074542  3.35386824  3.49405635  3.70849605  4.11823218
  4.11823219  4.14941757  4.40071081  4.40071083  4.40135258  4.48838477
  4.69682245  4.80327814  4.80327816  5.08510435  5.11758569  5.12856292
  5.28108726  5.2810873   5.52181194  5.52181195  5.65382357  6.03338697
  7.37765252  7.41603951  7.70435353  7.87481685  7.87481687 11.99240626
 12.27268293 12.3764802  12.37648021 17.01244881 17.52991306 17.52991307
 18.81295761 23.65907623 23.66773889 23.6677389  23.66851602 23.67572909
 23.68057595 23.68057595 28.88358413 28.90259213 29.01560317 29.15303469
 29.15303469 42.2626929  42.30433503 42.30433504 42.32533504 42.40236041
 42.40875226 42.48615338 42.48615339 61.13925291 82.44032795 82.80054179
 82.8005418  89.12064687]
   7 ( 0.500  0.500  0.500)   [-68.18603695 -10.53832413  -5.5279637   -3.6365696   -3.63637149
  -3.63637149  -0.3097353   -0.112838     0.21992822   0.21992822] [ 0.84005999  0.89765748  0.89765748  1.02781223  1.29052958  1.33680114
  1.33680114  1.44412222  1.44412222  1.56649018  1.91432709  1.95324579
  1.97643124  1.97643124  2.07406191  2.07406191  2.27266807  2.30883795
  2.30883798  2.44512395  2.44512396  2.64143952  2.73892472  2.79593991
  2.79593991  2.83437027  2.83437028  2.86259554  3.1216664   3.3276756
  3.32767561  3.48677956  3.62071471  3.62071586  3.73095599  4.05343303
  4.19738093  4.25361687  4.25361688  4.46511363  4.46511369  4.54141168
  4.64202477  4.6420249   4.67508948  4.94959748  4.94959761  5.22854191
  5.23600162  5.2360017   5.4490471   5.4490475   5.79771891  6.38108883
  7.43464234  7.43464241  7.72208616  7.72208632  7.98758952 11.83057681
 12.29261599 12.29261604 12.31480581 17.14975095 17.51135291 17.51135291
 19.06983652 23.65748397 23.66459551 23.66459552 23.66850289 23.67995
 23.67995    23.68640563 28.89993883 28.89993883 29.05885612 29.05885613
 29.17585875 42.23142743 42.28674633 42.28674633 42.32861737 42.32861738
 42.43026389 42.51278834 42.51278836 61.14022469 82.53035145 82.78973952
 82.78973952 89.41317016]
    CPU time for get_k_kpts: make_kpt ki>=kj (0,*)      2.92 sec, wall time      0.09 sec
    CPU time for get_k_kpts: make_kpt ki>=kj (1,*)      9.05 sec, wall time      0.28 sec
    CPU time for get_k_kpts: make_kpt ki>=kj (2,*)     12.82 sec, wall time      0.40 sec
    CPU time for get_k_kpts: make_kpt ki>=kj (3,*)     16.59 sec, wall time      0.52 sec
    CPU time for get_k_kpts: make_kpt ki>=kj (4,*)     20.27 sec, wall time      0.64 sec
    CPU time for get_k_kpts: make_kpt ki>=kj (5,*)     23.87 sec, wall time      0.75 sec
    CPU time for get_k_kpts: make_kpt ki>=kj (6,*)     27.58 sec, wall time      0.86 sec
    CPU time for get_k_kpts: make_kpt ki>=kj (7,*)     30.85 sec, wall time      0.97 sec
Monkhorst pack size [2 2 2] ew_eta 2.524363791145886 ew_cut 2.788138014809477
Ewald components = 0, -1.42444163786916, 1.28500458605009
    CPU time for get_j pass 1     16.52 sec, wall time      0.53 sec
    CPU time for get_j pass 2      6.16 sec, wall time      0.28 sec
    CPU time for vj and vk    170.31 sec, wall time      5.44 sec
Ewald components = 9.00674411881527e-134, -644.974612150364, 572.081161138653
E1 = (-317.6141476426508-1.1114082291876791e-15j)  E_coul = (63.66578832556532+2.4611572816176512e-17j)
Extra cycle  E= -326.841810328797  delta_E= -1.19e-10  |g|= 1.7e-05  |ddm|= 0.00176
    CPU time for scf_cycle  40011.09 sec, wall time   1316.66 sec
    CPU time for SCF  40011.13 sec, wall time   1316.69 sec
converged SCF energy = -326.841810328797
