#INFO: **** input file is /Users/ethanvo/projects/core_level_spectrscopy/01_peommp2_cbe/meanfield.py ****
#!/usr/bin/env python
import json
from pyscf.pbc import gto, scf
from pyscf.pbc.tools import lattice, pyscf_ase
from pyscf.pbc.scf import chkfile
from fileutils import load, dump
import sys

material = load("data/{}".format(sys.argv[1]))
# Create Cell
cell = gto.Cell()
ase_atom = lattice.get_ase_atom(material["formula"])
cell.atom = pyscf_ase.ase_atoms_to_pyscf(ase_atom)
cell.a = ase_atom.cell[:]
cell.unit = "B"
cell.basis = material["basis"]
cell.exp_to_discard = material["exp_to_discard"]
cell.verbose = 7
cell.build()

# Mean Field
kdensity = material["kdensity"]
kmesh = [kdensity, kdensity, kdensity]
kpts = cell.make_kpts(kmesh, scaled_center=material["vb_scaled_center"])
mymf = scf.KRHF(cell, kpts=kpts, exxdiv="ewald")
mymf.chkfile = "data/{}".format(material["chk"])
mymf = mymf.density_fit()
mymf.with_df._cderi_to_save = "data/{}".format(material["cderi"])
ekrhf = mymf.kernel()
convergence = mymf.converged
mymf_data = dict([("ekrhf", float(ekrhf)),
                  ("convergence", bool(convergence))])
dump(mymf_data, "data/{}".format(material["ekrhf"]))
#INFO: ******************** input file end ********************


System: uname_result(system='Darwin', node='Concord-Dawn.local', release='23.0.0', version='Darwin Kernel Version 23.0.0: Fri Sep 15 14:41:43 PDT 2023; root:xnu-10002.1.13~1/RELEASE_ARM64_T6000', machine='arm64')  Threads 10
Python 3.11.5 (main, Aug 24 2023, 15:09:45) [Clang 14.0.3 (clang-1403.0.22.14.1)]
numpy 1.26.0  scipy 1.10.1
Date: Tue Oct  3 19:15:48 2023
PySCF version 2.0.1
PySCF path  /Users/ethanvo/builds/pyscf/projected_cvs/pyscf
GIT ORIG_HEAD 39249f5012c1a95ee10ab9573a362ed9ef07a422
GIT HEAD (branch projected-cvs) ace313141c3a1051217dd8da77a08c1940605921

[ENV] PYSCF_MAX_MEMORY 64000
[ENV] PYSCF_TMPDIR /Users/ethanvo/projects/core_level_spectrscopy/01_peommp2_cbe/tmp
[CONFIG] DEBUG = False
[CONFIG] MAX_MEMORY = 64000
[CONFIG] TMPDIR = /Users/ethanvo/projects/core_level_spectrscopy/01_peommp2_cbe/tmp
[CONFIG] UNIT = angstrom
[CONFIG] VERBOSE = 3
[CONFIG] conf_file = None
[INPUT] verbose = 7
[INPUT] max_memory = 64000 
[INPUT] num. atoms = 2
[INPUT] num. electrons = 12
[INPUT] charge = 0
[INPUT] spin (= nelec alpha-beta = 2S) = 0
[INPUT] symmetry False subgroup None
[INPUT] Mole.unit = B
[INPUT]  1 C      0.000000000000   0.000000000000   0.000000000000 AA    0.000000000000   0.000000000000   0.000000000000 Bohr
[INPUT]  2 C      0.891699936031   0.891699936031   0.891699936031 AA    1.685068664391   1.685068664391   1.685068664391 Bohr
[INPUT] ---------------- BASIS SET ---------------- 
[INPUT] l, kappa, [nprim/nctr], expnt,             c_1 c_2 ...
[INPUT] C
[INPUT] 0    0    [8    /2   ]  8236              0.000531 -0.000113
                                1235              0.004108 -0.000878
                                280.8             0.021087 -0.00454
                                79.27             0.081853 -0.018133
                                25.59             0.234817 -0.05576
                                8.997             0.434401 -0.126895
                                3.319             0.346129 -0.170352
                                0.3643            -0.008983 0.598684
[INPUT] 0    0    [1    /1   ]  0.9059               1
[INPUT] 0    0    [1    /1   ]  0.1285               1
[INPUT] 1    0    [3    /1   ]  18.71             0.014031
                                4.133             0.086866
                                1.2               0.290216
[INPUT] 1    0    [1    /1   ]  0.3827               1
[INPUT] 1    0    [1    /1   ]  0.1209               1
[INPUT] 2    0    [1    /1   ]  1.097                1
[INPUT] 2    0    [1    /1   ]  0.318                1
[INPUT] 3    0    [1    /1   ]  0.761                1
[INPUT] 0    0    [1    /1   ]  4.292                1
[INPUT] 0    0    [1    /1   ]  11.876               1
[INPUT] 1    0    [1    /1   ]  8.778                1
[INPUT] 1    0    [1    /1   ]  33.19                1
[INPUT] 2    0    [1    /1   ]  14.839               1

Ewald components = 3.0606179073546e-132, -242.469443607053, 213.698400957796
nuclear repulsion = -28.7710426492569
number of shells = 28
number of NR pGTOs = 110
number of NR cGTOs = 86
basis = ccpcvtz
ecp = {}
bas 0, expnt(s) = [8.236e+03 1.235e+03 2.808e+02 7.927e+01 2.559e+01 8.997e+00 3.319e+00
 3.643e-01]
bas 1, expnt(s) = [0.9059]
bas 2, expnt(s) = [0.1285]
bas 3, expnt(s) = [18.71   4.133  1.2  ]
bas 4, expnt(s) = [0.3827]
bas 5, expnt(s) = [0.1209]
bas 6, expnt(s) = [1.097]
bas 7, expnt(s) = [0.318]
bas 8, expnt(s) = [0.761]
bas 9, expnt(s) = [4.292]
bas 10, expnt(s) = [11.876]
bas 11, expnt(s) = [8.778]
bas 12, expnt(s) = [33.19]
bas 13, expnt(s) = [14.839]
bas 14, expnt(s) = [8.236e+03 1.235e+03 2.808e+02 7.927e+01 2.559e+01 8.997e+00 3.319e+00
 3.643e-01]
bas 15, expnt(s) = [0.9059]
bas 16, expnt(s) = [0.1285]
bas 17, expnt(s) = [18.71   4.133  1.2  ]
bas 18, expnt(s) = [0.3827]
bas 19, expnt(s) = [0.1209]
bas 20, expnt(s) = [1.097]
bas 21, expnt(s) = [0.318]
bas 22, expnt(s) = [0.761]
bas 23, expnt(s) = [4.292]
bas 24, expnt(s) = [11.876]
bas 25, expnt(s) = [8.778]
bas 26, expnt(s) = [33.19]
bas 27, expnt(s) = [14.839]
CPU time:         0.29
lattice vectors  a1 [0.000000000, 3.370137329, 3.370137329]
                 a2 [3.370137329, 0.000000000, 3.370137329]
                 a3 [3.370137329, 3.370137329, 0.000000000]
dimension = 3
low_dim_ft_type = None
Cell volume = 76.5549
rcut = 22.27072948899357 (nimgs = [6 6 6])
lattice sum = 1313 cells
precision = 1e-08
pseudo = None
ke_cutoff = 105639.11192401215
    = [570 570 570] mesh (185193000 PWs)


******** <class 'pyscf.pbc.scf.khf.KRHF'> ********
method = KRHF-KSCF-RHF-SCF-RHF
initial guess = minao
damping factor = 0
level_shift factor = 0
DIIS = <class 'pyscf.scf.diis.CDIIS'>
diis_start_cycle = 1
diis_space = 8
SCF conv_tol = 1e-07
SCF conv_tol_grad = None
SCF max_cycles = 50
direct_scf = True
direct_scf_tol = 1e-13
chkfile to save SCF result = data/c_ccpcvtz_k2_C_1s.chk
max_memory 64000 MB (current use 0 MB)


******** PBC SCF flags ********
N kpts = 8
kpts = [[ 0.          0.          0.        ]
 [ 0.46609268  0.46609268 -0.46609268]
 [ 0.46609268 -0.46609268  0.46609268]
 [ 0.93218535  0.          0.        ]
 [-0.46609268  0.46609268  0.46609268]
 [ 0.          0.93218535  0.        ]
 [ 0.          0.          0.93218535]
 [ 0.46609268  0.46609268  0.46609268]]
Exchange divergence treatment (exxdiv) = ewald
Monkhorst pack size [2 2 2] ew_eta 3.0566830812214194 ew_cut 2.30320412508748
Ewald components = 0, -1.72482326343322, 1.55476854344923
    madelung (= occupied orbital energy shift) = 0.3401094399679656
    Total energy shift due to Ewald probe charge = -1/2 * Nelec*madelung = -2.04065663981
DF object = <pyscf.pbc.df.df.GDF object at 0x12817cf90>
Set gradient conv threshold to 0.000316228
Big error detected in the electron number of initial guess density matrix (Ne/cell = 11.9679)!
  This can cause huge error in Fock matrix and lead to instability in SCF for low-dimensional systems.
  DM is normalized wrt the number of electrons 12.0
    CPU time for vnuc pass1: analytic int    202.43 sec, wall time     23.62 sec
    CPU time for contracting Vnuc [0:216]      7.75 sec, wall time      0.89 sec
    CPU time for contracting Vnuc      7.75 sec, wall time      0.89 sec
    CPU time for get_nuc    210.19 sec, wall time     24.52 sec


******** <class 'pyscf.pbc.df.df.GDF'> ********
mesh = [7, 7, 7] (343 PWs)
auxbasis = None
eta = 0.2
exp_to_discard = None
_cderi_to_save = data/c_ccpcvtz_k2_C_1s_cderi.h5
len(kpts) = 8
    kpts = [[ 0.          0.          0.        ]
 [ 0.46609268  0.46609268 -0.46609268]
 [ 0.46609268 -0.46609268  0.46609268]
 [ 0.93218535  0.          0.        ]
 [-0.46609268  0.46609268  0.46609268]
 [ 0.          0.93218535  0.        ]
 [ 0.          0.          0.93218535]
 [ 0.46609268  0.46609268  0.46609268]]
Even tempered Gaussians are generated as DF auxbasis for  C
  ETB auxbasis for C  [[0, [2105.344, 1]], [0, [1052.672, 1]], [0, [526.336, 1]], [0, [263.168, 1]], [0, [131.584, 1]], [0, [65.792, 1]], [0, [32.896, 1]], [0, [16.448, 1]], [0, [8.224, 1]], [0, [4.112, 1]], [0, [2.056, 1]], [0, [1.028, 1]], [0, [0.514, 1]], [0, [0.257, 1]], [1, [255.26699539423424, 1]], [1, [127.63349769711712, 1]], [1, [63.81674884855856, 1]], [1, [31.90837442427928, 1]], [1, [15.95418721213964, 1]], [1, [7.97709360606982, 1]], [1, [3.98854680303491, 1]], [1, [1.994273401517455, 1]], [1, [0.9971367007587275, 1]], [1, [0.49856835037936376, 1]], [1, [0.24928417518968188, 1]], [2, [247.6032, 1]], [2, [123.8016, 1]], [2, [61.9008, 1]], [2, [30.9504, 1]], [2, [15.4752, 1]], [2, [7.7376, 1]], [2, [3.8688, 1]], [2, [1.9344, 1]], [2, [0.9672, 1]], [2, [0.4836, 1]], [2, [0.2418, 1]], [3, [25.09785928719818, 1]], [3, [12.54892964359909, 1]], [3, [6.274464821799545, 1]], [3, [3.1372324108997725, 1]], [3, [1.5686162054498862, 1]], [3, [0.7843081027249431, 1]], [3, [0.39215405136247156, 1]], [4, [20.352, 1]], [4, [10.176, 1]], [4, [5.088, 1]], [4, [2.544, 1]], [4, [1.272, 1]], [4, [0.636, 1]]]
num shells = 98, num cGTOs = 410
Drop 0 primitive fitting functions
make aux basis, num shells = 98, num cGTOs = 410
auxcell.rcut 12.950571518732957
make compensating basis, num shells = 10, num cGTOs = 50
chgcell.rcut 11.482117703874595
    CPU time for 3c2e  12649.02 sec, wall time   1364.59 sec
Num uniq kpts 14
uniq_kpts [[ 0.          0.          0.        ]
 [-0.46609268 -0.46609268  0.46609268]
 [-0.46609268  0.46609268 -0.46609268]
 [ 0.          0.93218535 -0.93218535]
 [-0.93218535  0.          0.        ]
 [ 0.46609268 -0.46609268 -0.46609268]
 [ 0.93218535  0.         -0.93218535]
 [ 0.93218535 -0.93218535  0.        ]
 [ 1.39827803 -0.46609268 -0.46609268]
 [ 0.         -0.93218535  0.        ]
 [ 0.46609268 -1.39827803  0.46609268]
 [ 0.          0.         -0.93218535]
 [ 0.46609268  0.46609268 -1.39827803]
 [-0.46609268 -0.46609268 -0.46609268]]
max_memory 64000 (MB)  blocksize 3478260
Cholesky decomposition for j2c at kpt 0
Symmetry pattern (k - [0. 0. 0.])*a= 2n pi
    make_kpt for uniq_kptji_ids [0]
kpt = [0. 0. 0.]
adapted_ji_idx = [ 0  2  5  9 14 20 27 35]
memory = 0
int3c2e [1/1], AO [0:28], ncol = 3741
Symmetry pattern (k + [0. 0. 0.])*a= 2n pi
    make_kpt for [0]
Cholesky decomposition for j2c at kpt 1
Symmetry pattern (k - [-0.46609268 -0.46609268  0.46609268])*a= 2n pi
    make_kpt for uniq_kptji_ids [1]
kpt = [-0.46609268 -0.46609268  0.46609268]
adapted_ji_idx = [ 1  8 19 34]
memory = 0
int3c2e [1/1], AO [0:28], ncol = 7396
Symmetry pattern (k + [-0.46609268 -0.46609268  0.46609268])*a= 2n pi
    make_kpt for [1]
Cholesky decomposition for j2c at kpt 2
Symmetry pattern (k - [-0.46609268  0.46609268 -0.46609268])*a= 2n pi
    make_kpt for uniq_kptji_ids [2]
kpt = [-0.46609268  0.46609268 -0.46609268]
adapted_ji_idx = [ 3  7 25 33]
memory = 0
int3c2e [1/1], AO [0:28], ncol = 7396
Symmetry pattern (k + [-0.46609268  0.46609268 -0.46609268])*a= 2n pi
    make_kpt for [2]
Cholesky decomposition for j2c at kpt 3
Symmetry pattern (k - [ 0.          0.93218535 -0.93218535])*a= 2n pi
    make_kpt for uniq_kptji_ids [3 4]
kpt = [ 0.          0.93218535 -0.93218535]
adapted_ji_idx = [ 4 26]
memory = 0
int3c2e [1/1], AO [0:28], ncol = 7396
kpt = [-0.93218535  0.          0.        ]
adapted_ji_idx = [ 6 32]
memory = 0
int3c2e [1/1], AO [0:28], ncol = 7396
Symmetry pattern (k + [ 0.          0.93218535 -0.93218535])*a= 2n pi
    make_kpt for [3 4]
Cholesky decomposition for j2c at kpt 5
Symmetry pattern (k - [ 0.46609268 -0.46609268 -0.46609268])*a= 2n pi
    make_kpt for uniq_kptji_ids [5]
kpt = [ 0.46609268 -0.46609268 -0.46609268]
adapted_ji_idx = [10 16 23 31]
memory = 0
int3c2e [1/1], AO [0:28], ncol = 7396
Symmetry pattern (k + [ 0.46609268 -0.46609268 -0.46609268])*a= 2n pi
    make_kpt for [5]
Cholesky decomposition for j2c at kpt 6
Symmetry pattern (k - [ 0.93218535  0.         -0.93218535])*a= 2n pi
    make_kpt for uniq_kptji_ids [6 9]
kpt = [ 0.93218535  0.         -0.93218535]
adapted_ji_idx = [11 24]
memory = 0
int3c2e [1/1], AO [0:28], ncol = 7396
kpt = [ 0.         -0.93218535  0.        ]
adapted_ji_idx = [15 30]
memory = 0
int3c2e [1/1], AO [0:28], ncol = 7396
Symmetry pattern (k + [ 0.93218535  0.         -0.93218535])*a= 2n pi
    make_kpt for [6 9]
Cholesky decomposition for j2c at kpt 7
Symmetry pattern (k - [ 0.93218535 -0.93218535  0.        ])*a= 2n pi
    make_kpt for uniq_kptji_ids [ 7 11]
kpt = [ 0.93218535 -0.93218535  0.        ]
adapted_ji_idx = [12 18]
memory = 0
int3c2e [1/1], AO [0:28], ncol = 7396
kpt = [ 0.          0.         -0.93218535]
adapted_ji_idx = [21 29]
memory = 0
int3c2e [1/1], AO [0:28], ncol = 7396
Symmetry pattern (k + [ 0.93218535 -0.93218535  0.        ])*a= 2n pi
    make_kpt for [ 7 11]
Cholesky decomposition for j2c at kpt 8
Symmetry pattern (k - [ 1.39827803 -0.46609268 -0.46609268])*a= 2n pi
    make_kpt for uniq_kptji_ids [ 8 10 12 13]
kpt = [ 1.39827803 -0.46609268 -0.46609268]
adapted_ji_idx = [13]
memory = 0
int3c2e [1/1], AO [0:28], ncol = 7396
kpt = [ 0.46609268 -1.39827803  0.46609268]
adapted_ji_idx = [17]
memory = 0
int3c2e [1/1], AO [0:28], ncol = 7396
kpt = [ 0.46609268  0.46609268 -1.39827803]
adapted_ji_idx = [22]
memory = 0
int3c2e [1/1], AO [0:28], ncol = 7396
kpt = [-0.46609268 -0.46609268 -0.46609268]
adapted_ji_idx = [28]
memory = 0
int3c2e [1/1], AO [0:28], ncol = 7396
Symmetry pattern (k + [ 1.39827803 -0.46609268 -0.46609268])*a= 2n pi
    make_kpt for [ 8 10 12 13]
    CPU time for j3c  13001.10 sec, wall time   1409.28 sec
    CPU time for Init get_k_kpts  13001.10 sec, wall time   1409.28 sec
    CPU time for get_k_kpts: make_kpt ki>=kj (0,*)      0.15 sec, wall time      0.04 sec
    CPU time for get_k_kpts: make_kpt ki>=kj (1,*)      0.45 sec, wall time      0.10 sec
    CPU time for get_k_kpts: make_kpt ki>=kj (2,*)      0.74 sec, wall time      0.17 sec
    CPU time for get_k_kpts: make_kpt ki>=kj (3,*)      1.03 sec, wall time      0.24 sec
    CPU time for get_k_kpts: make_kpt ki>=kj (4,*)      1.32 sec, wall time      0.30 sec
    CPU time for get_k_kpts: make_kpt ki>=kj (5,*)      1.61 sec, wall time      0.37 sec
    CPU time for get_k_kpts: make_kpt ki>=kj (6,*)      1.89 sec, wall time      0.43 sec
    CPU time for get_k_kpts: make_kpt ki>=kj (7,*)      2.19 sec, wall time      0.50 sec
Monkhorst pack size [2 2 2] ew_eta 3.0566830812214194 ew_cut 2.30320412508748
Ewald components = 0, -1.72482326343322, 1.55476854344923
    CPU time for get_j pass 1      0.25 sec, wall time      0.14 sec
    CPU time for get_j pass 2      0.14 sec, wall time      0.09 sec
    CPU time for vj and vk  13011.01 sec, wall time   1411.71 sec
Ewald components = 3.0606179073546e-132, -242.469443607053, 213.698400957796
E1 = (-51.753092697616026-2.7106403643727634e-20j)  E_coul = (3.412313228154059+1.9870968152389823e-19j)
init E= -77.1118221187189
cond(S) = [3.69179248e+07 1.49232033e+07 1.49232033e+07 7.95844853e+08
 1.49232034e+07 7.95844851e+08 7.95844823e+08 1.49232033e+07]
    CPU time for initialize scf  13221.69 sec, wall time   1436.45 sec
HOMO = 0.63663872237  LUMO = 0.825023589523
     k-point                  mo_energy
   0 ( 0.000  0.000  0.000)   [-10.61517441 -10.59889192  -1.74270837   0.63635137   0.63635137
   0.63663872] [ 0.90397975  0.90397975  0.90447459  1.15749711  1.47766355  1.78813925
  1.78813925  1.82402778  1.82402779  1.82405791  2.0914959   2.64846336
  2.64852969  2.64852969  3.39094457  3.39095583  3.39095583  3.56381378
  3.56381378  3.7687631   3.7687631   3.76876675  3.92952304  3.92955958
  3.92955958  4.59811893  4.59814373  4.59814375  4.66825256  4.93525206
  4.93525987  4.93525988  5.10200506  5.10200506  5.12362872  5.12362873
  5.12362956  5.15192366  5.33030173  5.33030173  5.42588782  5.42588783
  5.42591785  5.57413356  6.4279172   6.4279475   6.42794751  6.46505763
  6.46509554  6.46509557  7.3915964   8.41892221  8.41895078  8.41895115
 17.35995472 17.35998048 17.35998048 17.84986427 19.65955619 19.65958424
 19.65958428 19.8190994  42.27651661 42.27651661 42.32431354 42.32431354
 42.48274801 42.48276616 42.48276616 42.79656232 42.79658108 42.79658109
 82.66341682 82.66343013 82.66343013 84.39000885 84.39002218 84.39002218
 87.29881728 90.49316067]
   1 ( 0.000  0.000  0.500)   [-10.60272346 -10.59965075  -0.68439449  -0.38402185   0.48324403
   0.48329455] [ 0.97322372  1.04054539  1.04087413  1.36554088  1.63178522  1.7115243
  1.7852703   1.78530223  2.08678524  2.08684754  2.55517731  2.86612654
  2.86613772  2.94993696  3.06009994  3.06010537  3.0999714   3.10001551
  3.31124884  3.7091647   3.70919436  3.78027813  3.7802809   3.89474296
  3.95281603  4.11459041  4.25062971  4.25064467  4.42925922  4.86016502
  5.04730134  5.1770007   5.17702622  5.32140198  5.38774556  5.53546722
  5.53549505  5.66201669  5.67652325  5.67653426  5.69193053  5.69195179
  6.19053592  6.19054766  6.34582326  6.41429779  6.41430276  6.72426556
  6.72426656  7.25392552  7.32553734  7.57242697  7.57245559  9.10334942
 17.28722633 18.15724589 18.15727129 18.4349249  18.68544799 19.48528815
 19.48531404 22.96909888 42.32558124 42.32560265 42.38295127 42.38296323
 42.4308101  42.45589999 42.45864875 42.45865426 42.47825947 42.47826326
 82.64368883 83.2791733  83.27918534 83.65051135 84.23878514 84.23879678
 88.27696787 96.29570483]
   2 (-0.000  0.500  0.000)   [-10.60272346 -10.59965075  -0.68439449  -0.38402185   0.48324403
   0.48329455] [ 0.97322372  1.04054539  1.04087413  1.36554088  1.63178522  1.7115243
  1.7852703   1.78530223  2.08678524  2.08684754  2.5551773   2.86612654
  2.86613772  2.94993696  3.06009987  3.0601054   3.0999714   3.10001551
  3.31124871  3.70916469  3.70919436  3.78027813  3.7802809   3.89474296
  3.95281612  4.11459046  4.25062968  4.25064468  4.42925917  4.86016502
  5.04730133  5.17700069  5.17702622  5.32140193  5.3877456   5.53546714
  5.53549509  5.66201698  5.67652323  5.67653426  5.6919305   5.69195179
  6.1905358   6.19054772  6.34582303  6.41429779  6.41430276  6.7242655
  6.72426654  7.25392537  7.32553774  7.57242688  7.57245565  9.10335024
 17.28722633 18.15724588 18.15727129 18.4349249  18.68544799 19.4852881
 19.48531407 22.9690993  42.32558124 42.32560265 42.38295127 42.38296323
 42.43081009 42.45589999 42.45864875 42.45865426 42.47825947 42.47826326
 82.64368883 83.2791733  83.27918534 83.65051135 84.23878513 84.23879679
 88.27696787 96.29570498]
   3 ( 0.000  0.500  0.500)   [-10.60021574 -10.60018759  -0.33898993  -0.33791945   0.26973245
   0.26976303] [ 0.82502359  0.82508916  1.43862817  1.43871505  1.69551036  1.69554875
  2.02923379  2.02928016  2.25526607  2.25527851  2.66692025  2.66693247
  2.68795592  2.68797007  2.71506043  2.71506247  2.8253992   2.82542213
  3.54858122  3.54859888  3.77693589  3.77693606  3.85532646  3.85534126
  4.49509054  4.49510154  4.50590924  4.50594767  4.51932044  4.5193256
  4.66355768  4.66358461  4.98020088  4.98020632  5.04871556  5.04872049
  5.52654787  5.5265711   5.67067254  5.67069871  6.07235123  6.07236139
  6.13272325  6.13275231  6.19635384  6.19636791  6.33476236  6.33478793
  7.02648069  7.02649722  7.39287818  7.3928852   8.27254905  8.2725653
 17.3997095  17.39972705 18.15847787 18.158481   18.17699426 18.17701653
 19.82108342 19.82108501 42.28144454 42.28144456 42.31637506 42.31638001
 42.43857265 42.43858441 42.46314685 42.46315898 42.63645428 42.63645975
 82.68619173 82.68620065 83.27060638 83.27060642 83.2865484  83.28655725
 90.53951041 90.53951092]
   4 ( 0.500 -0.000 -0.000)   [-10.60272346 -10.59965075  -0.68439449  -0.38402185   0.48324403
   0.48329455] [ 0.97322372  1.04054539  1.04087413  1.36554088  1.63178522  1.7115243
  1.7852703   1.78530223  2.08678524  2.08684754  2.55517732  2.86612654
  2.86613773  2.94993696  3.06009987  3.06010541  3.0999714   3.10001551
  3.31124895  3.70916469  3.70919437  3.78027813  3.7802809   3.89474296
  3.95281608  4.11459044  4.25062968  4.25064469  4.42925925  4.86016502
  5.04730134  5.17700069  5.17702623  5.32140203  5.38774558  5.53546713
  5.53549511  5.66201686  5.67652323  5.67653427  5.6919305   5.69195182
  6.19053579  6.19054774  6.34582343  6.41429779  6.41430277  6.72426551
  6.72426662  7.25392562  7.32553755  7.57242687  7.57245566  9.10334985
 17.28722633 18.15724589 18.1572713  18.4349249  18.68544799 19.4852881
 19.48531408 22.96909911 42.32558124 42.32560265 42.38295127 42.38296323
 42.4308101  42.45589999 42.45864875 42.45865426 42.47825947 42.47826326
 82.64368883 83.2791733  83.27918534 83.65051135 84.23878513 84.23879679
 88.27696787 96.29570493]
   5 ( 0.500  0.000  0.500)   [-10.60021574 -10.60018759  -0.33898993  -0.33791945   0.26973245
   0.26976303] [ 0.82502359  0.82508916  1.43862817  1.43871505  1.69551036  1.69554875
  2.02923379  2.02928016  2.25526607  2.25527851  2.66692025  2.66693247
  2.68795592  2.68797007  2.71506038  2.71506241  2.8253992   2.82542213
  3.54858105  3.54859867  3.77693589  3.77693605  3.85532646  3.85534126
  4.49509054  4.49510154  4.50590924  4.50593095  4.51932044  4.5193256
  4.66355768  4.6635846   4.98020088  4.98020632  5.04871556  5.04872049
  5.52654754  5.5265707   5.67067254  5.67069871  6.07235123  6.07236139
  6.13272288  6.13274096  6.19635384  6.19636791  6.33476236  6.33478793
  7.02647982  7.02649555  7.39287811  7.39288512  8.27254861  8.27256486
 17.3997095  17.39972705 18.15847785 18.15848098 18.17699418 18.17701644
 19.82108342 19.82108501 42.28144454 42.28144456 42.31637506 42.31638001
 42.43857263 42.43858439 42.46314685 42.46315898 42.63645428 42.63645975
 82.68619173 82.68620065 83.27060638 83.27060641 83.28654839 83.28655724
 90.53951041 90.53951092]
   6 ( 0.500  0.500  0.000)   [-10.60021574 -10.60018759  -0.33898993  -0.33791945   0.26973245
   0.26976303] [ 0.82502359  0.82508916  1.43862817  1.43871505  1.69551036  1.69554875
  2.02923379  2.02928016  2.25526607  2.25527851  2.66692025  2.66693247
  2.68795592  2.68797007  2.71506036  2.7150624   2.8253992   2.82542213
  3.548581    3.54859859  3.77693589  3.77693605  3.85532646  3.85534126
  4.49509054  4.49510154  4.50591306  4.50592242  4.51932044  4.5193256
  4.66355768  4.66358461  4.98020088  4.98020632  5.04871556  5.04872049
  5.52654749  5.52657058  5.67067254  5.67069871  6.07235123  6.07236139
  6.13272491  6.13273551  6.19635384  6.19636791  6.33476236  6.33478793
  7.02647975  7.02649505  7.39287812  7.39288513  8.27254867  8.27256496
 17.3997095  17.39972705 18.15847785 18.15848098 18.17699415 18.1770164
 19.82108342 19.82108501 42.28144454 42.28144456 42.31637506 42.31638001
 42.43857263 42.43858438 42.46314685 42.46315898 42.63645428 42.63645975
 82.68619173 82.68620065 83.27060638 83.27060642 83.28654838 83.28655724
 90.53951041 90.53951092]
   7 ( 0.500  0.500  0.500)   [-10.60270125 -10.59972287  -0.68210262  -0.38068272   0.48330274
   0.48330274] [ 0.97325816  1.04060257  1.04060257  1.36538019  1.63185353  1.71151324
  1.78532357  1.78532357  2.08677258  2.08677258  2.55519094  2.86615981
  2.86615981  2.94998151  3.06011256  3.06011263  3.10000988  3.10000988
  3.31126327  3.70917724  3.70917726  3.78028579  3.78028579  3.89474914
  3.95279872  4.11456261  4.25063494  4.25063497  4.42924127  4.8601819
  5.04730939  5.17703025  5.17703026  5.32138639  5.38771837  5.53549404
  5.53549412  5.66201015  5.67652639  5.67652641  5.6919299   5.69192993
  6.1905295   6.19052961  6.34582333  6.41430583  6.41430583  6.72426488
  6.72426494  7.25387904  7.32554726  7.57246138  7.57246147  9.1033525
 17.2872028  18.15727126 18.15727127 18.43492493 18.68542119 19.48531267
 19.48531272 22.96909916 42.32558972 42.32558972 42.38296836 42.38296836
 42.43079516 42.45588453 42.45866165 42.45866165 42.47825807 42.47825807
 82.64367744 83.27918529 83.27918529 83.65049972 84.23879664 84.23879665
 88.27696784 96.29570449]
    CPU time for get_k_kpts: make_kpt ki>=kj (0,*)      0.15 sec, wall time      0.04 sec
    CPU time for get_k_kpts: make_kpt ki>=kj (1,*)      0.45 sec, wall time      0.10 sec
    CPU time for get_k_kpts: make_kpt ki>=kj (2,*)      0.74 sec, wall time      0.17 sec
    CPU time for get_k_kpts: make_kpt ki>=kj (3,*)      1.03 sec, wall time      0.23 sec
    CPU time for get_k_kpts: make_kpt ki>=kj (4,*)      1.32 sec, wall time      0.30 sec
    CPU time for get_k_kpts: make_kpt ki>=kj (5,*)      1.61 sec, wall time      0.36 sec
    CPU time for get_k_kpts: make_kpt ki>=kj (6,*)      1.90 sec, wall time      0.44 sec
    CPU time for get_k_kpts: make_kpt ki>=kj (7,*)      2.18 sec, wall time      0.49 sec
Monkhorst pack size [2 2 2] ew_eta 3.0566830812214194 ew_cut 2.30320412508748
Ewald components = 0, -1.72482326343322, 1.55476854344923
    CPU time for get_j pass 1      0.25 sec, wall time      0.14 sec
    CPU time for get_j pass 2      0.13 sec, wall time      0.09 sec
    CPU time for vj and vk     11.08 sec, wall time      2.56 sec
Ewald components = 3.0606179073546e-132, -242.469443607053, 213.698400957796
E1 = (-51.27501614812201-5.137560364483484e-19j)  E_coul = (4.352137546414619+4.651735799780584e-19j)
cycle= 1 E= -75.6939212509643  delta_E= 1.42  |g|= 0.641  |ddm|= 13.3
    CPU time for cycle= 1     11.84 sec, wall time      2.69 sec
diis-norm(errvec)=2.48079
diis-c [-6.15434309-7.06819371e-28j  1.        +0.00000000e+00j]
HOMO = 0.346969530626  LUMO = 0.915182305958
     k-point                  mo_energy
   0 ( 0.000  0.000  0.000)   [-10.55854046 -10.55600396  -0.66991733   0.34696854   0.34696854
   0.34696953] [ 0.98425272  0.98425327  0.98425327  1.32812527  1.49531099  1.77943119
  1.77943119  1.82173561  1.82173562  1.82175062  2.07949106  2.6646042
  2.66460776  2.66460776  3.40526347  3.40527678  3.40527679  3.57830157
  3.57830157  3.78526553  3.78526553  3.78529166  3.94537177  3.94537755
  3.94537756  4.60480174  4.60480409  4.60480413  4.69681134  4.95081316
  4.95081317  4.95083775  5.11762073  5.11762073  5.13247586  5.13247748
  5.13247748  5.18282548  5.34983934  5.34983934  5.44066374  5.44066374
  5.44066797  5.58233427  6.45324887  6.45327359  6.4532736   6.47653311
  6.47653934  6.47653936  7.42543572  8.44206043  8.44206655  8.44206697
 17.39406731 17.39408331 17.39408331 17.88621199 19.69139645 19.69141108
 19.69141112 19.85321496 42.30424767 42.30424767 42.35214066 42.35214066
 42.51047762 42.51048445 42.51048445 42.82459523 42.82460241 42.82460242
 82.66641017 82.66641636 82.66641636 84.39286078 84.39286688 84.39286688
 87.29426554 90.48812871]
   1 ( 0.000  0.000  0.500)   [-10.5580676  -10.55679843  -0.39831196  -0.24709449   0.22828576
   0.22828996] [ 1.09863143  1.09864943  1.10293638  1.39420743  1.64390436  1.75710531
  1.79378686  1.79379707  2.0782968   2.07829988  2.54824903  2.8727177
  2.87272359  2.97129818  3.05461206  3.05462873  3.11402249  3.11403814
  3.29542663  3.71808243  3.71808416  3.80376689  3.80376922  3.91248163
  3.95874936  4.12168622  4.25860088  4.25860617  4.4676085   4.87101651
  5.06052658  5.19327499  5.19329282  5.34248068  5.407441    5.55832106
  5.55833146  5.67078352  5.69971718  5.6997277   5.71580089  5.71582297
  6.20942951  6.20944258  6.36174991  6.42409753  6.42410712  6.73915069
  6.73916828  7.28196933  7.34932667  7.59395296  7.59396811  9.12823188
 17.31829795 18.19032534 18.19033818 18.47082014 18.71656757 19.51582802
 19.51583577 23.00053445 42.3533383  42.35334582 42.41100935 42.41101369
 42.4589097  42.48380264 42.48640724 42.48640914 42.5060232  42.50602454
 82.64630438 83.28206802 83.28207342 83.653207   84.2414713  84.24147601
 88.27228509 96.28927642]
   2 (-0.000  0.500  0.000)   [-10.5580676  -10.55679843  -0.39831196  -0.24709449   0.22828576
   0.22828996] [ 1.09863143  1.09864943  1.10293638  1.39420743  1.64390436  1.75710531
  1.79378686  1.79379707  2.0782968   2.07829988  2.54824901  2.8727177
  2.87272359  2.97129818  3.0546121   3.05462866  3.11402248  3.11403814
  3.29542648  3.71808241  3.71808416  3.80376689  3.80376922  3.91248163
  3.95874947  4.12168627  4.25860089  4.25860614  4.46760845  4.87101651
  5.06052657  5.19327498  5.19329282  5.34248063  5.40744104  5.55832097
  5.55833151  5.67078382  5.69971717  5.6997277   5.71580086  5.71582296
  6.20942939  6.20944264  6.36174967  6.42409753  6.42410712  6.73915068
  6.73916821  7.28196918  7.34932708  7.59395288  7.59396816  9.12823272
 17.31829796 18.19032533 18.19033818 18.47082014 18.71656757 19.51582797
 19.5158358  23.00053488 42.3533383  42.35334582 42.41100935 42.41101369
 42.4589097  42.48380264 42.48640724 42.48640914 42.5060232  42.50602454
 82.64630438 83.28206802 83.28207342 83.653207   84.24147129 84.24147601
 88.27228509 96.28927658]
   3 ( 0.000  0.500  0.500)   [-10.55748618 -10.55748611  -0.24576568  -0.24575482   0.07539637
   0.0753977 ] [ 0.91518231  0.9152028   1.50163202  1.5016325   1.72978365  1.72979351
  2.01037682  2.01037792  2.25172309  2.25173622  2.66939692  2.66939999
  2.67534408  2.67534427  2.70886024  2.7088761   2.83646411  2.83646813
  3.56782689  3.5678632   3.79921707  3.79924233  3.87266434  3.8726674
  4.48140683  4.48144678  4.50411863  4.50411894  4.52723327  4.52724202
  4.68597133  4.68600311  4.99752312  4.99753358  5.07183626  5.07184486
  5.55431668  5.55431987  5.6936009   5.69360602  6.090845    6.090859
  6.15117582  6.15120317  6.20829624  6.20830389  6.35667339  6.35667555
  7.04921231  7.04922455  7.41923301  7.41923396  8.28999245  8.28999539
 17.43365949 17.4336695  18.19003625 18.1900412  18.20730153 18.20730717
 19.85508709 19.85508884 42.30921459 42.30921459 42.34412311 42.34412501
 42.46672279 42.4667269  42.49098805 42.4909926  42.66422549 42.66422755
 82.68915234 82.68915639 83.2732867  83.27328672 83.28913762 83.28914115
 90.53434641 90.53434689]
   4 ( 0.500 -0.000 -0.000)   [-10.5580676  -10.55679843  -0.39831196  -0.24709449   0.22828576
   0.22828996] [ 1.09863143  1.09864943  1.10293638  1.39420743  1.64390436  1.75710531
  1.79378686  1.79379708  2.0782968   2.07829988  2.54824904  2.87271771
  2.87272359  2.97129818  3.05461211  3.05462866  3.11402248  3.11403814
  3.29542673  3.71808242  3.71808417  3.80376689  3.80376922  3.91248163
  3.95874942  4.12168625  4.2586009   4.25860614  4.46760853  4.87101651
  5.06052658  5.19327498  5.19329283  5.34248073  5.40744102  5.55832096
  5.55833153  5.67078369  5.69971716  5.6997277   5.71580087  5.715823
  6.20942938  6.20944267  6.36175007  6.42409754  6.42410712  6.73915075
  6.73916823  7.28196942  7.34932684  7.59395286  7.59396818  9.12823232
 17.31829795 18.19032533 18.1903382  18.47082014 18.71656757 19.51582796
 19.51583581 23.00053467 42.3533383  42.35334582 42.41100935 42.41101369
 42.4589097  42.48380264 42.48640724 42.48640914 42.5060232  42.50602454
 82.64630438 83.28206802 83.28207342 83.653207   84.24147129 84.24147601
 88.27228509 96.28927652]
   5 ( 0.500  0.000  0.500)   [-10.55748618 -10.55748611  -0.24576568  -0.24575482   0.07539637
   0.0753977 ] [ 0.91518231  0.9152028   1.50163202  1.5016325   1.72978365  1.72979351
  2.01037682  2.01037792  2.25172309  2.25173622  2.66939692  2.66939999
  2.67534407  2.67534427  2.70886016  2.70887603  2.83646411  2.83646813
  3.56782667  3.56786294  3.79921706  3.79924232  3.87266434  3.8726674
  4.48140456  4.48142922  4.50411863  4.50411894  4.52723326  4.52724202
  4.68597133  4.6860031   4.99752312  4.99753358  5.07183626  5.07184486
  5.55431637  5.55431933  5.69360091  5.69360602  6.09084499  6.09085901
  6.15117455  6.15119097  6.20829623  6.20830389  6.35667339  6.35667554
  7.04921141  7.04922266  7.41923293  7.41923388  8.289992    8.28999497
 17.43365949 17.4336695  18.19003623 18.19004118 18.20730144 18.20730707
 19.85508709 19.85508884 42.30921459 42.30921459 42.34412311 42.34412501
 42.46672277 42.46672688 42.49098805 42.4909926  42.66422549 42.66422755
 82.68915234 82.68915639 83.2732867  83.27328672 83.28913761 83.28914114
 90.53434641 90.53434689]
   6 ( 0.500  0.500  0.000)   [-10.55748618 -10.55748611  -0.24576568  -0.24575482   0.07539637
   0.0753977 ] [ 0.91518231  0.9152028   1.50163202  1.5016325   1.72978365  1.72979351
  2.01037682  2.01037792  2.25172309  2.25173622  2.66939692  2.66939999
  2.67534407  2.67534427  2.70886014  2.70887603  2.83646411  2.83646813
  3.56782667  3.56786287  3.79921706  3.79924232  3.87266434  3.8726674
  4.4814096   4.48142167  4.50411863  4.50411894  4.52723326  4.52724202
  4.68597133  4.6860031   4.99752312  4.99753358  5.07183626  5.07184486
  5.55431635  5.55431927  5.69360091  5.69360602  6.09084499  6.09085901
  6.1511794   6.15118429  6.20829623  6.20830389  6.35667339  6.35667555
  7.04921165  7.04922218  7.41923294  7.41923388  8.28999206  8.28999508
 17.43365949 17.4336695  18.19003623 18.19004118 18.20730143 18.20730703
 19.85508709 19.85508884 42.30921459 42.30921459 42.34412311 42.34412501
 42.46672277 42.46672687 42.49098805 42.4909926  42.66422549 42.66422755
 82.68915234 82.68915639 83.2732867  83.27328672 83.28913761 83.28914113
 90.53434641 90.53434689]
   7 ( 0.500  0.500  0.500)   [-10.55806766 -10.55679837  -0.39830096  -0.24711233   0.22828646
   0.22828646] [ 1.09865424  1.09865424  1.10295376  1.39420809  1.6439145   1.75708223
  1.79377667  1.79377667  2.07828007  2.07828007  2.54826296  2.87272206
  2.87272206  2.97128284  3.05462538  3.05462544  3.11405174  3.11405174
  3.29544065  3.71807765  3.71807766  3.80378266  3.80378266  3.91250786
  3.95875408  4.12166416  4.25858154  4.25858157  4.4676173   4.87101331
  5.06053065  5.19329497  5.19329498  5.34248976  5.40743383  5.55833417
  5.55833425  5.6707706   5.69971189  5.6997119   5.71579399  5.71579402
  6.20943543  6.20943554  6.36175108  6.42409947  6.42409947  6.73915132
  6.73915138  7.28193744  7.34932866  7.59397657  7.59397666  9.12824187
 17.31828599 18.19033615 18.19033616 18.47082074 18.71656297 19.51583653
 19.51583658 23.00053905 42.35334129 42.35334129 42.41101564 42.41101564
 42.45890423 42.48379732 42.48641174 42.48641174 42.50602272 42.50602272
 82.64629943 83.28207318 83.28207318 83.65320243 84.24147609 84.24147609
 88.27228522 96.28927703]
    CPU time for get_k_kpts: make_kpt ki>=kj (0,*)      0.14 sec, wall time      0.04 sec
    CPU time for get_k_kpts: make_kpt ki>=kj (1,*)      0.43 sec, wall time      0.10 sec
    CPU time for get_k_kpts: make_kpt ki>=kj (2,*)      0.71 sec, wall time      0.17 sec
    CPU time for get_k_kpts: make_kpt ki>=kj (3,*)      0.97 sec, wall time      0.23 sec
    CPU time for get_k_kpts: make_kpt ki>=kj (4,*)      1.25 sec, wall time      0.30 sec
    CPU time for get_k_kpts: make_kpt ki>=kj (5,*)      1.53 sec, wall time      0.36 sec
    CPU time for get_k_kpts: make_kpt ki>=kj (6,*)      1.81 sec, wall time      0.43 sec
    CPU time for get_k_kpts: make_kpt ki>=kj (7,*)      2.08 sec, wall time      0.49 sec
Monkhorst pack size [2 2 2] ew_eta 3.0566830812214194 ew_cut 2.30320412508748
Ewald components = 0, -1.72482326343322, 1.55476854344923
    CPU time for get_j pass 1      0.24 sec, wall time      0.14 sec
    CPU time for get_j pass 2      0.13 sec, wall time      0.09 sec
    CPU time for vj and vk     10.06 sec, wall time      2.47 sec
Ewald components = 3.0606179073546e-132, -242.469443607053, 213.698400957796
E1 = (-51.308757463028826+5.38145912829059e-19j)  E_coul = (4.372957140624311+9.281154827804004e-19j)
cycle= 2 E= -75.7068429716615  delta_E= -0.0129  |g|= 0.137  |ddm|= 2.16
    CPU time for cycle= 2     11.43 sec, wall time      2.67 sec
diis-norm(errvec)=0.50696
diis-c [-0.02432247-1.16827159e-28j -0.24197227-1.24758142e-26j
  1.24197227+1.24758142e-26j]
HOMO = 0.344400919414  LUMO = 0.919825337909
     k-point                  mo_energy
   0 ( 0.000  0.000  0.000)   [-10.55395517 -10.55138204  -0.66458255   0.34439444   0.34439444
   0.34440092] [ 0.9893552   0.98935758  0.98935758  1.34093509  1.49645248  1.7800346
  1.7800346   1.821154    1.821158    1.821158    2.07783241  2.66523863
  2.66523863  2.66524129  3.40690898  3.40690898  3.40691008  3.58019735
  3.58019735  3.78765611  3.7876612   3.7876612   3.94703661  3.94703661
  3.94703893  4.60563181  4.60563184  4.60563271  4.70046257  4.95268093
  4.95268557  4.95268558  5.11976944  5.11976944  5.13385183  5.13385258
  5.13385258  5.18680127  5.35219114  5.35219114  5.44237244  5.44237291
  5.44237291  5.58325715  6.45634515  6.45634516  6.45634937  6.47785806
  6.47785808  6.4778597   7.42968836  8.44470307  8.44470349  8.44470451
 17.39922324 17.39922324 17.39922544 17.89143701 19.69620327 19.69620332
 19.69620513 19.85810331 42.30892758 42.30892758 42.35683142 42.35683142
 42.51516514 42.51516514 42.51516589 42.82932163 42.82932163 42.82932242
 82.66901882 82.66901882 82.66901939 84.39543132 84.39543132 84.39543186
 87.29597402 90.48978538]
   1 ( 0.000  0.000  0.500)   [-10.55344568 -10.5521617   -0.3936659   -0.24609779   0.22650055
   0.22650529] [ 1.10256841  1.10257347  1.11198788  1.3954267   1.64552203  1.76154938
  1.79468566  1.79468935  2.07835557  2.07835689  2.54755053  2.87370706
  2.87370838  2.97415991  3.05431895  3.05432285  3.11544773  3.11545171
  3.29351957  3.71921543  3.71921597  3.80671517  3.80671553  3.91507781
  3.95911289  4.12268862  4.2596954   4.25969713  4.47225952  4.87226688
  5.06208282  5.19526661  5.19527046  5.34501049  5.40972856  5.56104756
  5.56104959  5.67189436  5.7025329   5.70253491  5.71878805  5.71879214
  6.21173286  6.2117356   6.36371558  6.4252959   6.4252973   6.7408767
  6.74088006  7.28547813  7.35209596  7.59656312  7.59656615  9.13141892
 17.32302856 18.19533936 18.19534113 18.47599724 18.72125379 19.52044509
 19.52044605 23.00516779 42.35802338 42.35802406 42.41573807 42.41573847
 42.46363789 42.48850508 42.49109311 42.49109323 42.51070761 42.51070773
 82.64885799 83.28465452 83.28465502 83.65575422 84.24401698 84.24401738
 88.27398572 96.29078158]
   2 (-0.000  0.500  0.000)   [-10.55344568 -10.5521617   -0.3936659   -0.24609779   0.22650055
   0.22650529] [ 1.10256841  1.10257347  1.11198788  1.3954267   1.64552203  1.76154938
  1.79468566  1.79468935  2.07835557  2.07835689  2.54755052  2.87370705
  2.87370838  2.97415992  3.05431888  3.05432288  3.11544773  3.11545171
  3.29351943  3.71921543  3.71921595  3.80671517  3.80671553  3.91507781
  3.95911301  4.12268867  4.25969537  4.25969715  4.47225948  4.87226688
  5.06208282  5.19526661  5.19527045  5.34501043  5.4097286   5.56104761
  5.5610495   5.67189467  5.7025329   5.7025349   5.71878804  5.7187921
  6.21173292  6.21173548  6.36371534  6.42529589  6.4252973   6.74087664
  6.74088004  7.28547798  7.35209638  7.59656317  7.59656607  9.13141977
 17.32302856 18.19533936 18.19534112 18.47599723 18.72125379 19.52044512
 19.520446   23.00516822 42.35802338 42.35802406 42.41573807 42.41573847
 42.46363789 42.48850508 42.49109311 42.49109323 42.51070761 42.51070773
 82.64885799 83.28465452 83.28465502 83.65575422 84.24401698 84.24401737
 88.27398572 96.29078173]
   3 ( 0.000  0.500  0.500)   [-10.55284819 -10.55284816  -0.2428253   -0.24282006   0.07393098
   0.07393286] [ 0.91982534  0.91982979  1.50726919  1.50726971  1.73331618  1.7333193
  2.00882607  2.00882625  2.25263275  2.25263587  2.67020774  2.67020838
  2.67388678  2.67388734  2.70811857  2.70812146  2.83820114  2.83820248
  3.5701542   3.57016146  3.80183867  3.80184305  3.87451417  3.87451529
  4.47843401  4.47847406  4.50529083  4.50529084  4.52843353  4.52843534
  4.68872556  4.68873096  4.99968415  4.99968637  5.07472101  5.0747228
  5.55751574  5.55751762  5.696394    5.69639451  6.09325107  6.09325345
  6.15336718  6.15339422  6.20963427  6.20963538  6.35925442  6.35925498
  7.05207644  7.05208191  7.42252271  7.42252314  8.29207445  8.29207494
 17.43878653 17.43878788 18.19483286 18.19483385 18.21189895 18.21189973
 19.86000063 19.86000112 42.31389909 42.3138991  42.34880516 42.34880536
 42.47146097 42.4714613  42.49568685 42.49568734 42.66891389 42.66891407
 82.69175337 82.69175374 83.27584301 83.27584303 83.29168031 83.29168061
 90.53599326 90.53599337]
   4 ( 0.500 -0.000 -0.000)   [-10.55344568 -10.5521617   -0.3936659   -0.24609779   0.22650055
   0.22650529] [ 1.10256841  1.10257347  1.11198788  1.3954267   1.64552203  1.76154938
  1.79468566  1.79468935  2.07835557  2.07835689  2.54755054  2.87370705
  2.87370838  2.97415992  3.05431888  3.0543229   3.11544773  3.11545171
  3.29351968  3.71921544  3.71921596  3.80671517  3.80671553  3.91507781
  3.95911295  4.12268864  4.25969537  4.25969715  4.47225956  4.87226688
  5.06208283  5.19526662  5.19527046  5.34501053  5.40972858  5.56104763
  5.56104949  5.67189453  5.7025329   5.70253489  5.71878808  5.71879211
  6.21173295  6.21173548  6.36371574  6.4252959   6.42529731  6.74087666
  6.74088012  7.28547822  7.35209614  7.59656319  7.59656605  9.13141936
 17.32302856 18.19533937 18.19534112 18.47599724 18.72125379 19.52044513
 19.52044599 23.00516802 42.35802338 42.35802406 42.41573807 42.41573847
 42.46363789 42.48850508 42.49109311 42.49109323 42.51070761 42.51070773
 82.64885799 83.28465452 83.28465502 83.65575422 84.24401698 84.24401737
 88.27398572 96.29078168]
   5 ( 0.500  0.000  0.500)   [-10.55284819 -10.55284816  -0.2428253   -0.24282006   0.07393098
   0.07393286] [ 0.91982534  0.91982979  1.50726919  1.50726971  1.73331618  1.7333193
  2.00882607  2.00882625  2.25263275  2.25263587  2.67020774  2.67020838
  2.67388678  2.67388734  2.7081185   2.70812136  2.83820114  2.83820248
  3.57015395  3.57016121  3.80183866  3.80184305  3.87451417  3.87451529
  4.47843173  4.47845591  4.50529083  4.50529084  4.52843353  4.52843534
  4.68872555  4.68873096  4.99968415  4.99968637  5.07472101  5.07472281
  5.55751559  5.5575169   5.696394    5.69639451  6.09325108  6.09325344
  6.15336565  6.15338192  6.20963427  6.20963537  6.35925441  6.35925498
  7.05207597  7.05207953  7.42252263  7.42252306  8.29207404  8.29207448
 17.43878653 17.43878788 18.19483284 18.19483383 18.21189888 18.2118996
 19.86000063 19.86000112 42.31389909 42.3138991  42.34880516 42.34880536
 42.47146095 42.47146127 42.49568685 42.49568734 42.66891389 42.66891407
 82.69175337 82.69175374 83.27584301 83.27584303 83.29168029 83.2916806
 90.53599326 90.53599337]
   6 ( 0.500  0.500  0.000)   [-10.55284819 -10.55284816  -0.2428253   -0.24282006   0.07393098
   0.07393286] [ 0.91982534  0.91982979  1.50726919  1.50726971  1.73331618  1.7333193
  2.00882607  2.00882625  2.25263275  2.25263587  2.67020774  2.67020838
  2.67388678  2.67388734  2.70811851  2.70812134  2.83820114  2.83820248
  3.5701539   3.5701612   3.80183866  3.80184305  3.87451417  3.87451529
  4.47843956  4.47844599  4.50529083  4.50529084  4.52843353  4.52843534
  4.68872555  4.68873096  4.99968415  4.99968637  5.07472101  5.07472281
  5.55751582  5.55751661  5.696394    5.69639451  6.09325108  6.09325344
  6.15337087  6.15337517  6.20963427  6.20963537  6.35925441  6.35925498
  7.0520766   7.05207873  7.42252263  7.42252307  8.29207412  8.29207457
 17.43878653 17.43878788 18.19483284 18.19483383 18.21189886 18.21189957
 19.86000063 19.86000112 42.31389909 42.3138991  42.34880516 42.34880536
 42.47146094 42.47146127 42.49568685 42.49568734 42.66891389 42.66891407
 82.69175337 82.69175374 83.27584301 83.27584303 83.29168029 83.29168059
 90.53599326 90.53599337]
   7 ( 0.500  0.500  0.500)   [-10.55344571 -10.55216167  -0.3936698   -0.24609042   0.22650182
   0.22650182] [ 1.10256887  1.10256887  1.11198636  1.39542464  1.64552065  1.76155501
  1.79468851  1.79468851  2.07836015  2.07836015  2.54754822  2.87370808
  2.87370808  2.97416287  3.05432064  3.05432071  3.11544517  3.11544518
  3.29351723  3.71921599  3.71921601  3.80671276  3.80671276  3.9150727
  3.95911213  4.12269362  4.25970059  4.25970062  4.47225787  4.87226778
  5.06208153  5.19526636  5.19526637  5.34500847  5.4097293   5.56104662
  5.56104671  5.67189646  5.70253629  5.7025363   5.71879348  5.71879351
  6.21173412  6.21173423  6.36371571  6.42529697  6.42529698  6.74088016
  6.74088023  7.28548353  7.35209591  7.59656168  7.59656176  9.13141842
 17.32303038 18.19533975 18.19533977 18.47599717 18.72125416 19.52044496
 19.52044501 23.00516735 42.35802377 42.35802377 42.41573788 42.41573788
 42.46363836 42.48850556 42.49109286 42.49109286 42.51070777 42.51070777
 82.64885842 83.28465456 83.28465456 83.6557546  84.24401697 84.24401697
 88.27398566 96.29078163]
    CPU time for get_k_kpts: make_kpt ki>=kj (0,*)      0.14 sec, wall time      0.04 sec
    CPU time for get_k_kpts: make_kpt ki>=kj (1,*)      0.43 sec, wall time      0.10 sec
    CPU time for get_k_kpts: make_kpt ki>=kj (2,*)      0.70 sec, wall time      0.17 sec
    CPU time for get_k_kpts: make_kpt ki>=kj (3,*)      0.98 sec, wall time      0.23 sec
    CPU time for get_k_kpts: make_kpt ki>=kj (4,*)      1.26 sec, wall time      0.29 sec
    CPU time for get_k_kpts: make_kpt ki>=kj (5,*)      1.52 sec, wall time      0.36 sec
    CPU time for get_k_kpts: make_kpt ki>=kj (6,*)      1.81 sec, wall time      0.43 sec
    CPU time for get_k_kpts: make_kpt ki>=kj (7,*)      2.06 sec, wall time      0.49 sec
Monkhorst pack size [2 2 2] ew_eta 3.0566830812214194 ew_cut 2.30320412508748
Ewald components = 0, -1.72482326343322, 1.55476854344923
    CPU time for get_j pass 1      0.25 sec, wall time      0.14 sec
    CPU time for get_j pass 2      0.13 sec, wall time      0.09 sec
    CPU time for vj and vk      9.84 sec, wall time      2.42 sec
Ewald components = 3.0606179073546e-132, -242.469443607053, 213.698400957796
E1 = (-51.307884682919834+1.0391507732307785e-18j)  E_coul = (4.371415957914345-7.791321113552438e-19j)
cycle= 3 E= -75.7075113742624  delta_E= -0.000668  |g|= 0.00806  |ddm|= 0.689
    CPU time for cycle= 3     11.36 sec, wall time      2.63 sec
diis-norm(errvec)=0.0409639
diis-c [-4.28467711e-04+5.35990152e-30j  6.44765585e-02-1.04868188e-26j
 -3.51650152e-01+6.69093452e-26j  1.28717359e+00-5.64225264e-26j]
HOMO = 0.343971904907  LUMO = 0.91978604379
     k-point                  mo_energy
   0 ( 0.000  0.000  0.000)   [-10.55557791 -10.55300656  -0.66451646   0.34397001   0.3439719
   0.3439719 ] [ 0.98921846  0.98921846  0.98921852  1.34110893  1.49654328  1.77989285
  1.77989285  1.82120637  1.82120637  1.82120747  2.07804561  2.6648447
  2.66484556  2.66484556  3.40667652  3.40667686  3.40667687  3.58006556
  3.58006556  3.78749242  3.78749243  3.78749379  3.94659192  3.94659236
  3.94659236  4.60551441  4.60551452  4.60551455  4.70016729  4.95247719
  4.9524772   4.95247875  5.11951673  5.11951673  5.13378847  5.1337885
  5.1337885   5.18648762  5.35192206  5.35192206  5.44222156  5.44222164
  5.44222164  5.58307965  6.45593149  6.45593267  6.45593268  6.47758293
  6.47758313  6.47758315  7.42929343  8.44427785  8.44427814  8.44427852
 17.39789826 17.39789883 17.39789883 17.89025424 19.694935   19.69493543
 19.69493548 19.8569306  42.30731567 42.30731567 42.35521946 42.35521946
 42.5135571  42.51355723 42.51355723 42.82771707 42.82771721 42.82771721
 82.66707591 82.66707599 82.66707599 84.39349821 84.39349828 84.39349828
 87.29398911 90.48779857]
   1 ( 0.000  0.000  0.500)   [-10.55506803 -10.55378475  -0.39333556  -0.24628034   0.22617331
   0.22617493] [ 1.10238463  1.10238565  1.11215729  1.3953281   1.645169    1.76119072
  1.79443044  1.79443158  2.07822709  2.07822734  2.54763592  2.87357396
  2.87357435  2.97389256  3.05432994  3.05433115  3.11514823  3.11514934
  3.29365473  3.71906884  3.71906886  3.80634955  3.80634968  3.91489995
  3.9589112   4.12250159  4.25960746  4.25960801  4.47182944  4.87215856
  5.06189256  5.19493115  5.19493216  5.34462159  5.40948819  5.56073153
  5.56073191  5.67170101  5.70225002  5.70225046  5.71848916  5.71849033
  6.21142107  6.21142163  6.36343003  6.42511945  6.42512002  6.74067487
  6.74067609  7.28513163  7.35180321  7.59614283  7.59614338  9.13092036
 17.32171617 18.19403088 18.19403127 18.47481833 18.71996172 19.51917707
 19.51917712 23.00399434 42.35641219 42.35641227 42.4141264  42.41412645
 42.46202649 42.48689537 42.48948424 42.48948424 42.50909914 42.50909915
 82.6469167  83.28271483 83.2827149  83.65381664 84.24208322 84.24208324
 88.27200053 96.28880306]
   2 (-0.000  0.500  0.000)   [-10.55506803 -10.55378475  -0.39333556  -0.24628034   0.22617331
   0.22617493] [ 1.10238463  1.10238565  1.11215729  1.3953281   1.645169    1.76119072
  1.79443044  1.79443158  2.07822709  2.07822734  2.54763591  2.87357396
  2.87357434  2.97389256  3.05432998  3.05433108  3.11514823  3.11514934
  3.29365459  3.71906883  3.71906886  3.80634955  3.80634968  3.91489995
  3.95891132  4.12250164  4.25960748  4.25960798  4.47182939  4.87215856
  5.06189256  5.19493114  5.19493216  5.34462154  5.40948824  5.56073144
  5.56073196  5.67170132  5.70225     5.70225047  5.71848912  5.71849032
  6.21142094  6.21142169  6.36342979  6.42511944  6.42512002  6.74067486
  6.74067602  7.28513148  7.35180363  7.59614274  7.59614344  9.13092121
 17.32171617 18.19403086 18.19403127 18.47481833 18.71996172 19.51917701
 19.51917716 23.00399478 42.35641219 42.35641227 42.4141264  42.41412645
 42.46202648 42.48689537 42.48948424 42.48948424 42.50909914 42.50909915
 82.6469167  83.28271483 83.2827149  83.65381664 84.24208321 84.24208324
 88.27200053 96.28880322]
   3 ( 0.000  0.500  0.500)   [-10.55447052 -10.55447051  -0.24262987  -0.2426288    0.07360133
   0.07360207] [ 0.91978604  0.91978736  1.50688802  1.50688848  1.73285226  1.73285319
  2.00866011  2.00866024  2.25253875  2.25253966  2.67009889  2.67009909
  2.67397312  2.67397316  2.7081691   2.70817006  2.83814504  2.83814544
  3.56982607  3.56982855  3.80156019  3.80156168  3.8741012   3.87410137
  4.4786465   4.47868624  4.50511992  4.50511992  4.52832453  4.52832506
  4.68838358  4.68838551  4.99938184  4.99938265  5.07440082  5.07440136
  5.55715621  5.55715786  5.69616969  5.69616972  6.09310316  6.09310387
  6.15304275  6.15306977  6.20939007  6.20939043  6.35888521  6.35888521
  7.05180473  7.05181012  7.42211938  7.42211943  8.29179159  8.29179174
 17.43746167 17.43746201 18.19354426 18.1935446  18.21060951 18.21060994
 19.85882572 19.85882592 42.3122869  42.31228691 42.34719376 42.3471938
 42.46984952 42.46984962 42.4940778  42.49407787 42.66730802 42.66730805
 82.68981044 82.68981049 83.27390466 83.27390466 83.2897424  83.28974246
 90.53400852 90.53400855]
   4 ( 0.500 -0.000 -0.000)   [-10.55506803 -10.55378475  -0.39333556  -0.24628034   0.22617331
   0.22617493] [ 1.10238463  1.10238565  1.11215729  1.3953281   1.645169    1.76119072
  1.79443044  1.79443158  2.07822709  2.07822734  2.54763593  2.87357397
  2.87357434  2.97389256  3.05433     3.05433108  3.11514823  3.11514934
  3.29365483  3.71906883  3.71906887  3.80634955  3.80634968  3.91489995
  3.95891126  4.12250161  4.25960748  4.25960798  4.47182947  4.87215856
  5.06189257  5.19493115  5.19493217  5.34462164  5.40948822  5.56073143
  5.56073198  5.67170118  5.70224999  5.70225046  5.71848913  5.71849036
  6.21142094  6.21142172  6.36343019  6.42511945  6.42512002  6.74067493
  6.74067605  7.28513172  7.35180339  7.59614273  7.59614345  9.1309208
 17.32171617 18.19403087 18.19403128 18.47481834 18.71996172 19.51917701
 19.51917716 23.00399457 42.35641219 42.35641227 42.4141264  42.41412645
 42.46202649 42.48689537 42.48948424 42.48948424 42.50909914 42.50909915
 82.6469167  83.28271483 83.2827149  83.65381664 84.24208321 84.24208325
 88.27200053 96.28880316]
   5 ( 0.500  0.000  0.500)   [-10.55447052 -10.55447051  -0.24262987  -0.2426288    0.07360133
   0.07360207] [ 0.91978604  0.91978736  1.50688802  1.50688848  1.73285226  1.73285319
  2.00866011  2.00866024  2.25253875  2.25253966  2.67009889  2.67009909
  2.67397312  2.67397316  2.70816903  2.70816997  2.83814504  2.83814544
  3.56982591  3.56982822  3.80156018  3.80156168  3.8741012   3.87410137
  4.47864422  4.4786681   4.50511992  4.50511992  4.52832452  4.52832507
  4.68838358  4.68838551  4.99938184  4.99938265  5.07440082  5.07440136
  5.55715608  5.55715711  5.69616969  5.69616972  6.09310315  6.09310388
  6.15304122  6.15305747  6.20939006  6.20939043  6.35888521  6.35888522
  7.05180437  7.05180763  7.4221193   7.42211934  8.29179119  8.29179126
 17.43746167 17.43746201 18.19354424 18.19354458 18.21060949 18.21060976
 19.85882572 19.85882592 42.3122869  42.31228691 42.34719376 42.3471938
 42.46984952 42.46984958 42.4940778  42.49407787 42.66730802 42.66730804
 82.68981044 82.68981049 83.27390466 83.27390466 83.2897424  83.28974244
 90.53400852 90.53400855]
   6 ( 0.500  0.500  0.000)   [-10.55447052 -10.55447051  -0.24262987  -0.2426288    0.07360133
   0.07360207] [ 0.91978604  0.91978736  1.50688802  1.50688848  1.73285226  1.73285319
  2.00866011  2.00866024  2.25253875  2.25253966  2.67009889  2.67009909
  2.67397312  2.67397316  2.70816902  2.70816996  2.83814504  2.83814544
  3.56982595  3.56982812  3.80156018  3.80156168  3.8741012   3.87410137
  4.47865184  4.47865837  4.50511992  4.50511992  4.52832452  4.52832507
  4.68838358  4.68838551  4.99938184  4.99938265  5.07440082  5.07440136
  5.55715632  5.55715681  5.69616969  5.69616972  6.09310315  6.09310388
  6.15304641  6.15305074  6.20939006  6.20939043  6.35888521  6.35888522
  7.05180544  7.05180639  7.4221193   7.42211936  8.29179119  8.29179143
 17.43746167 17.43746201 18.19354425 18.19354458 18.21060955 18.21060965
 19.85882572 19.85882592 42.3122869  42.31228691 42.34719376 42.3471938
 42.46984953 42.46984956 42.4940778  42.49407787 42.66730802 42.66730805
 82.68981044 82.68981049 83.27390466 83.27390466 83.2897424  83.28974243
 90.53400852 90.53400855]
   7 ( 0.500  0.500  0.500)   [-10.55506801 -10.55378476  -0.39333457  -0.24628248   0.22617455
   0.22617455] [ 1.10238598  1.10238598  1.11215779  1.39532838  1.64516928  1.76118859
  1.79443065  1.79443065  2.07822611  2.07822611  2.54763687  2.87357414
  2.87357414  2.97389177  3.05433064  3.0543307   3.11515025  3.11515025
  3.29365549  3.71906856  3.71906857  3.80635044  3.80635044  3.91490134
  3.9589117   4.12250012  4.25960634  4.25960637  4.47183002  4.87215812
  5.06189264  5.19493234  5.19493235  5.34462224  5.40948796  5.5607321
  5.56073218  5.67170068  5.7022496   5.70224961  5.71848879  5.71848882
  6.21142131  6.21142141  6.36342996  6.42511949  6.42511949  6.74067494
  6.74067501  7.28513002  7.35180363  7.59614388  7.59614396  9.13092158
 17.32171573 18.19403115 18.19403116 18.47481832 18.7199618  19.51917718
 19.51917723 23.00399496 42.35641222 42.35641222 42.41412648 42.41412648
 42.46202643 42.48689533 42.48948427 42.48948427 42.50909914 42.50909914
 82.64691666 83.28271488 83.28271488 83.65381661 84.24208325 84.24208325
 88.27200055 96.28880321]
    CPU time for get_k_kpts: make_kpt ki>=kj (0,*)      0.14 sec, wall time      0.04 sec
    CPU time for get_k_kpts: make_kpt ki>=kj (1,*)      0.43 sec, wall time      0.10 sec
    CPU time for get_k_kpts: make_kpt ki>=kj (2,*)      0.71 sec, wall time      0.17 sec
    CPU time for get_k_kpts: make_kpt ki>=kj (3,*)      0.98 sec, wall time      0.23 sec
    CPU time for get_k_kpts: make_kpt ki>=kj (4,*)      1.25 sec, wall time      0.29 sec
    CPU time for get_k_kpts: make_kpt ki>=kj (5,*)      1.53 sec, wall time      0.35 sec
    CPU time for get_k_kpts: make_kpt ki>=kj (6,*)      1.80 sec, wall time      0.42 sec
    CPU time for get_k_kpts: make_kpt ki>=kj (7,*)      2.09 sec, wall time      0.48 sec
Monkhorst pack size [2 2 2] ew_eta 3.0566830812214194 ew_cut 2.30320412508748
Ewald components = 0, -1.72482326343322, 1.55476854344923
    CPU time for get_j pass 1      0.25 sec, wall time      0.14 sec
    CPU time for get_j pass 2      0.13 sec, wall time      0.09 sec
    CPU time for vj and vk      9.82 sec, wall time      2.40 sec
Ewald components = 3.0606179073546e-132, -242.469443607053, 213.698400957796
E1 = (-51.30699293787959-7.24660330526299e-19j)  E_coul = (4.370520473309363+5.248651729659066e-19j)
cycle= 4 E= -75.7075151138272  delta_E= -3.74e-06  |g|= 0.00086  |ddm|= 0.112
    CPU time for cycle= 4     11.21 sec, wall time      2.60 sec
diis-norm(errvec)=0.00473358
diis-c [-4.00523451e-06+2.92936943e-31j -4.80141862e-03+3.75010594e-26j
  3.08303598e-02-2.02935987e-25j -2.07528843e-01+6.08476249e-25j
  1.18149990e+00-4.43041321e-25j]
HOMO = 0.343992040406  LUMO = 0.919768883254
     k-point                  mo_energy
   0 ( 0.000  0.000  0.000)   [-10.55539142 -10.55281869  -0.66454833   0.34399187   0.34399187
   0.34399204] [ 0.98920965  0.98920975  0.98920975  1.34115149  1.49655038  1.77988848
  1.77988848  1.82119045  1.82119056  1.82119056  2.07804658  2.6648743
  2.6648743   2.66487439  3.40668659  3.40668659  3.40668661  3.58006009
  3.58006009  3.78748374  3.78748388  3.78748389  3.94663027  3.94663027
  3.94663034  4.60552245  4.60552247  4.60552251  4.70020682  4.95247975
  4.95247989  4.95247989  5.11952492  5.11952492  5.13378337  5.1337834
  5.1337834   5.18648939  5.35192984  5.35192984  5.44221484  5.44221485
  5.44221485  5.58309857  6.45595705  6.45595706  6.45595718  6.4776031
  6.47760312  6.47760316  7.42931351  8.44430153  8.44430185  8.4443022
 17.3980459  17.3980459  17.39804595 17.89038247 19.6950758  19.69507584
 19.69507589 19.85705662 42.30750581 42.30750581 42.3554095  42.3554095
 42.51374696 42.51374696 42.51374698 42.82790636 42.82790636 42.82790638
 82.66731652 82.66731652 82.66731653 84.39373746 84.39373747 84.39373748
 87.29423265 90.48804212]
   1 ( 0.000  0.000  0.500)   [-10.55488128 -10.55359735  -0.39333072  -0.24633889   0.22618094
   0.22618104] [ 1.10237303  1.10237316  1.11218105  1.39531502  1.64520346  1.76122311
  1.79443187  1.79443198  2.07823336  2.07823339  2.54764176  2.87358176
  2.8735818   2.97391324  3.05433031  3.05433033  3.11516694  3.11516707
  3.29365677  3.71907368  3.7190737   3.80636107  3.80636108  3.91489126
  3.95893265  4.12252274  4.25960486  4.25960488  4.47185949  4.87215081
  5.06189723  5.19495353  5.19495366  5.34465017  5.4094943   5.5607436
  5.56074378  5.67171027  5.70225424  5.70225431  5.71849855  5.7184987
  6.21143619  6.21143643  6.36345549  6.42512744  6.42512748  6.7406782
  6.74067825  7.28514301  7.35181027  7.59617194  7.59617216  9.13096647
 17.32186451 18.19417724 18.19417729 18.474946   18.72010649 19.51931893
 19.51931903 23.00412192 42.35660225 42.35660226 42.41431635 42.41431635
 42.46221629 42.48708512 42.48967408 42.48967408 42.50928893 42.50928893
 82.64715738 83.28295502 83.28295503 83.65405656 84.24232265 84.24232267
 88.27224412 96.2890462 ]
   2 (-0.000  0.500  0.000)   [-10.55488128 -10.55359735  -0.39333072  -0.24633889   0.22618094
   0.22618104] [ 1.10237303  1.10237316  1.11218105  1.39531501  1.64520346  1.76122311
  1.79443187  1.79443198  2.07823336  2.07823339  2.54764175  2.87358176
  2.8735818   2.97391325  3.05433023  3.05433038  3.11516694  3.11516706
  3.29365662  3.71907367  3.71907369  3.80636107  3.80636108  3.91489126
  3.95893276  4.12252279  4.25960483  4.2596049   4.47185944  4.87215081
  5.06189722  5.19495353  5.19495365  5.34465012  5.40949435  5.56074361
  5.56074372  5.67171058  5.70225424  5.7022543   5.71849854  5.71849867
  6.21143621  6.21143636  6.36345524  6.42512743  6.42512747  6.74067814
  6.74067823  7.28514286  7.35181069  7.59617195  7.59617211  9.13096731
 17.32186451 18.19417723 18.19417728 18.474946   18.72010649 19.51931894
 19.51931901 23.00412236 42.35660225 42.35660226 42.41431635 42.41431635
 42.46221629 42.48708512 42.48967408 42.48967408 42.50928893 42.50928893
 82.64715738 83.28295502 83.28295503 83.65405656 84.24232266 84.24232267
 88.27224412 96.28904636]
   3 ( 0.000  0.500  0.500)   [-10.55428348 -10.55428348  -0.24264429  -0.24264411   0.07359103
   0.07359107] [ 0.91976888  0.91976902  1.50690316  1.50690317  1.73289265  1.73289278
  2.00866676  2.00866677  2.25253664  2.25253672  2.67010528  2.67010532
  2.67397444  2.67397446  2.70816722  2.70816755  2.83816034  2.83816038
  3.56983861  3.56983958  3.80156852  3.80156865  3.87413153  3.87413156
  4.47865024  4.47869003  4.50512981  4.50512982  4.52832462  4.52832467
  4.6884108   4.68841097  4.99939845  4.99939852  5.07441053  5.07441058
  5.55716676  5.55716841  5.69616519  5.6961652   6.09309496  6.09309504
  6.15306104  6.15308806  6.20940483  6.20940486  6.35890207  6.35890208
  7.05181182  7.05181713  7.42215109  7.42215114  8.29180363  8.29180379
 17.43760908 17.43760911 18.19368922 18.19368925 18.21075492 18.21075533
 19.8589528  19.85895282 42.31247703 42.31247703 42.34738385 42.34738386
 42.47003934 42.47003942 42.49426759 42.4942676  42.66749756 42.66749756
 82.69005102 82.69005103 83.27414482 83.27414482 83.28998257 83.28998262
 90.53425212 90.53425212]
   4 ( 0.500 -0.000 -0.000)   [-10.55488128 -10.55359735  -0.39333072  -0.24633889   0.22618094
   0.22618104] [ 1.10237303  1.10237316  1.11218105  1.39531502  1.64520346  1.76122311
  1.79443187  1.79443198  2.07823336  2.07823339  2.54764177  2.87358176
  2.8735818   2.97391324  3.05433023  3.05433039  3.11516694  3.11516706
  3.29365687  3.71907369  3.71907369  3.80636107  3.80636108  3.91489127
  3.95893271  4.12252276  4.25960483  4.2596049   4.47185952  4.87215081
  5.06189723  5.19495354  5.19495365  5.34465021  5.40949433  5.56074363
  5.56074372  5.67171044  5.70225424  5.70225429  5.71849858  5.71849868
  6.21143624  6.21143635  6.36345565  6.42512744  6.42512748  6.74067817
  6.74067831  7.2851431   7.35181045  7.59617197  7.59617209  9.13096691
 17.32186451 18.19417725 18.19417729 18.474946   18.72010649 19.51931894
 19.519319   23.00412215 42.35660225 42.35660226 42.41431635 42.41431635
 42.46221629 42.48708512 42.48967408 42.48967408 42.50928893 42.50928893
 82.64715738 83.28295502 83.28295503 83.65405656 84.24232266 84.24232267
 88.27224412 96.2890463 ]
   5 ( 0.500  0.000  0.500)   [-10.55428348 -10.55428348  -0.24264429  -0.24264411   0.07359103
   0.07359107] [ 0.91976888  0.91976902  1.50690316  1.50690317  1.73289265  1.73289278
  2.00866676  2.00866678  2.25253664  2.25253672  2.67010528  2.67010532
  2.67397444  2.67397445  2.7081672   2.70816741  2.83816034  2.83816038
  3.56983854  3.56983915  3.80156851  3.80156864  3.87413153  3.87413156
  4.47864796  4.47867189  4.50512982  4.50512982  4.52832462  4.52832467
  4.6884108   4.68841096  4.99939845  4.99939852  5.07441053  5.07441058
  5.55716666  5.55716765  5.69616519  5.6961652   6.09309497  6.09309503
  6.15305951  6.15307576  6.20940483  6.20940486  6.35890207  6.35890209
  7.05181146  7.05181464  7.42215102  7.42215106  8.29180324  8.29180331
 17.43760908 17.43760911 18.1936892  18.19368923 18.2107549  18.21075515
 19.8589528  19.85895282 42.31247703 42.31247703 42.34738385 42.34738386
 42.47003933 42.47003938 42.49426759 42.4942676  42.66749755 42.66749756
 82.69005102 82.69005103 83.27414482 83.27414482 83.28998256 83.28998259
 90.53425212 90.53425212]
   6 ( 0.500  0.500  0.000)   [-10.55428348 -10.55428348  -0.24264429  -0.24264411   0.07359103
   0.07359107] [ 0.91976888  0.91976902  1.50690316  1.50690317  1.73289265  1.73289278
  2.00866676  2.00866678  2.25253664  2.25253672  2.67010528  2.67010532
  2.67397444  2.67397446  2.70816725  2.70816734  2.83816034  2.83816038
  3.56983868  3.56983896  3.80156851  3.80156864  3.87413153  3.87413156
  4.47865568  4.47866207  4.50512982  4.50512982  4.52832462  4.52832467
  4.6884108   4.68841096  4.99939845  4.99939852  5.07441053  5.07441058
  5.55716699  5.55716725  5.69616519  5.6961652   6.09309497  6.09309503
  6.1530647   6.15306903  6.20940483  6.20940486  6.35890207  6.35890209
  7.05181252  7.0518134   7.42215101  7.42215108  8.29180324  8.29180347
 17.43760908 17.43760911 18.1936892  18.19368924 18.21075497 18.21075504
 19.8589528  19.85895282 42.31247703 42.31247703 42.34738385 42.34738386
 42.47003935 42.47003936 42.49426759 42.4942676  42.66749755 42.66749756
 82.69005102 82.69005103 83.27414482 83.27414482 83.28998257 83.28998258
 90.53425212 90.53425212]
   7 ( 0.500  0.500  0.500)   [-10.55488128 -10.55359735  -0.3933308   -0.24633871   0.22618095
   0.22618095] [ 1.10237306  1.10237306  1.11218096  1.39531496  1.6452034   1.76122333
  1.79443195  1.79443195  2.07823349  2.07823349  2.54764167  2.8735818
  2.8735818   2.97391331  3.05433027  3.05433033  3.11516687  3.11516687
  3.29365663  3.71907369  3.7190737   3.806361    3.806361    3.91489112
  3.95893271  4.12252294  4.25960499  4.25960501  4.47185942  4.87215084
  5.06189719  5.19495353  5.19495354  5.34465008  5.40949436  5.56074358
  5.56074366  5.67171058  5.70225434  5.70225435  5.71849872  5.71849875
  6.21143624  6.21143635  6.36345539  6.42512746  6.42512747  6.74067826
  6.74067832  7.2851431   7.3518106   7.5961719   7.59617199  9.1309671
 17.32186456 18.19417725 18.19417726 18.474946   18.72010649 19.51931894
 19.51931898 23.00412224 42.35660226 42.35660226 42.41431634 42.41431634
 42.4622163  42.48708513 42.48967407 42.48967407 42.50928893 42.50928893
 82.64715739 83.28295502 83.28295502 83.65405657 84.24232265 84.24232266
 88.27224412 96.28904632]
    CPU time for get_k_kpts: make_kpt ki>=kj (0,*)      0.14 sec, wall time      0.04 sec
    CPU time for get_k_kpts: make_kpt ki>=kj (1,*)      0.43 sec, wall time      0.10 sec
    CPU time for get_k_kpts: make_kpt ki>=kj (2,*)      0.70 sec, wall time      0.17 sec
    CPU time for get_k_kpts: make_kpt ki>=kj (3,*)      0.98 sec, wall time      0.23 sec
    CPU time for get_k_kpts: make_kpt ki>=kj (4,*)      1.25 sec, wall time      0.29 sec
    CPU time for get_k_kpts: make_kpt ki>=kj (5,*)      1.53 sec, wall time      0.35 sec
    CPU time for get_k_kpts: make_kpt ki>=kj (6,*)      1.80 sec, wall time      0.42 sec
    CPU time for get_k_kpts: make_kpt ki>=kj (7,*)      2.08 sec, wall time      0.48 sec
Monkhorst pack size [2 2 2] ew_eta 3.0566830812214194 ew_cut 2.30320412508748
Ewald components = 0, -1.72482326343322, 1.55476854344923
    CPU time for get_j pass 1      0.25 sec, wall time      0.14 sec
    CPU time for get_j pass 2      0.14 sec, wall time      0.09 sec
    CPU time for vj and vk      9.84 sec, wall time      2.40 sec
Ewald components = 3.0606179073546e-132, -242.469443607053, 213.698400957796
E1 = (-51.30689748310539+1.1278376005179142e-18j)  E_coul = (4.37042497776835-1.1280957618803619e-18j)
cycle= 5 E= -75.707515154594  delta_E= -4.08e-08  |g|= 0.000108  |ddm|= 0.00587
    CPU time for cycle= 5     10.95 sec, wall time      2.57 sec
HOMO = 0.343992045881  LUMO = 0.91976799502
     k-point                  mo_energy
   0 ( 0.000  0.000  0.000)   [-10.55540776 -10.55283514  -0.66454664   0.34399203   0.34399205
   0.34399205] [ 0.98920466  0.98920468  0.98920468  1.34115029  1.49655102  1.77988816
  1.77988816  1.82119076  1.82119076  1.82119076  2.07804875  2.66487114
  2.66487114  2.66487114  3.40668477  3.40668477  3.40668477  3.58005936
  3.58005936  3.78748259  3.78748259  3.7874826   3.94662642  3.94662642
  3.94662643  4.60552139  4.60552141  4.60552144  4.70020438  4.95247824
  4.95247824  4.95247825  5.11952297  5.11952297  5.1337825   5.13378252
  5.13378252  5.18648681  5.35192778  5.35192778  5.44221389  5.4422139
  5.4422139   5.5830977   6.45595368  6.45595368  6.45595369  6.4776013
  6.47760133  6.47760134  7.42931021  8.44429838  8.44429869  8.44429904
 17.3980326  17.3980326  17.3980326  17.89037129 19.69506326 19.6950633
 19.69506334 19.85704547 42.30748902 42.30748902 42.35539272 42.35539272
 42.51373023 42.51373023 42.51373024 42.82788966 42.82788967 42.82788967
 82.66729154 82.66729154 82.66729154 84.39371262 84.39371263 84.39371263
 87.29420609 90.48801546]
   1 ( 0.000  0.000  0.500)   [-10.55489764 -10.55361377  -0.39332832  -0.24633748   0.22618017
   0.22618019] [ 1.10236913  1.10236913  1.11218036  1.39531232  1.64520049  1.76121992
  1.79443125  1.79443125  2.0782329   2.07823291  2.54764234  2.87358011
  2.87358012  2.9739112   3.05433018  3.05433028  3.11516424  3.11516424
  3.2936579   3.71907252  3.71907254  3.80635831  3.80635832  3.91488982
  3.95893084  4.12252104  4.25960412  4.25960416  4.47185601  4.87215022
  5.06189575  5.19495079  5.19495081  5.34464664  5.40949253  5.56074122
  5.56074135  5.67170914  5.70225198  5.702252    5.71849592  5.71849596
  6.21143386  6.21143402  6.36345345  6.42512631  6.42512632  6.74067681
  6.7406769   7.2851401   7.35180826  7.59616853  7.59616867  9.13096279
 17.3218514  18.19416418 18.19416419 18.4749348  18.72009375 19.51930646
 19.51930654 23.00411045 42.35658549 42.35658549 42.41429957 42.41429958
 42.46219952 42.48706837 42.48965733 42.48965733 42.50927218 42.50927218
 82.64713242 83.28293009 83.2829301  83.65403168 84.24229782 84.24229783
 88.27221753 96.28901948]
   2 (-0.000  0.500  0.000)   [-10.55489764 -10.55361377  -0.39332832  -0.24633748   0.22618017
   0.22618019] [ 1.10236913  1.10236913  1.11218036  1.39531231  1.64520049  1.76121992
  1.79443124  1.79443125  2.0782329   2.07823291  2.54764233  2.87358011
  2.87358012  2.9739112   3.05433017  3.05433025  3.11516424  3.11516424
  3.29365775  3.71907251  3.71907252  3.80635831  3.80635832  3.91488982
  3.95893095  4.12252109  4.25960412  4.25960415  4.47185597  4.87215022
  5.06189575  5.19495079  5.1949508   5.34464659  5.40949257  5.56074121
  5.56074132  5.67170944  5.70225198  5.702252    5.71849592  5.71849592
  6.21143384  6.21143398  6.36345321  6.42512631  6.42512632  6.7406768
  6.74067683  7.28513995  7.35180868  7.59616852  7.59616865  9.13096363
 17.3218514  18.19416418 18.19416418 18.47493479 18.72009375 19.51930646
 19.51930653 23.00411088 42.35658549 42.35658549 42.41429957 42.41429957
 42.46219952 42.48706837 42.48965733 42.48965733 42.50927218 42.50927218
 82.64713242 83.28293009 83.28293009 83.65403168 84.24229782 84.24229783
 88.27221753 96.28901964]
   3 ( 0.000  0.500  0.500)   [-10.55429986 -10.55429986  -0.24264195  -0.24264194   0.07359025
   0.07359026] [ 0.919768    0.919768    1.50689676  1.50689677  1.73288855  1.73288855
  2.00866687  2.00866688  2.25253652  2.25253652  2.67010427  2.67010427
  2.67397548  2.67397549  2.70816749  2.70816781  2.83815961  2.83815961
  3.56983584  3.56983681  3.8015663   3.80156631  3.87412814  3.87412814
  4.47865212  4.47869191  4.50512817  4.50512817  4.5283235   4.5283235
  4.68840805  4.68840807  4.9993961   4.99939611  5.07440811  5.07440812
  5.55716402  5.55716566  5.69616337  5.69616338  6.09309368  6.09309368
  6.15305841  6.15308543  6.20940336  6.20940336  6.35889945  6.35889945
  7.05180949  7.05181481  7.422148    7.42214805  8.29180173  8.29180188
 17.43759581 17.43759581 18.19367638 18.19367639 18.21074215 18.21074256
 19.85894161 19.85894161 42.31246025 42.31246025 42.34736708 42.34736708
 42.47002257 42.47002265 42.49425085 42.49425085 42.66748085 42.66748085
 82.69002605 82.69002605 83.27411991 83.27411991 83.28995766 83.28995771
 90.53422548 90.53422548]
   4 ( 0.500 -0.000 -0.000)   [-10.55489764 -10.55361377  -0.39332832  -0.24633748   0.22618017
   0.22618019] [ 1.10236913  1.10236913  1.11218036  1.39531232  1.64520049  1.76121993
  1.79443124  1.79443125  2.0782329   2.07823291  2.54764236  2.87358012
  2.87358012  2.9739112   3.05433018  3.05433025  3.11516423  3.11516424
  3.293658    3.71907253  3.71907253  3.80635832  3.80635832  3.91488982
  3.9589309   4.12252107  4.25960412  4.25960415  4.47185605  4.87215022
  5.06189576  5.1949508   5.1949508   5.34464669  5.40949255  5.56074122
  5.56074132  5.6717093   5.70225198  5.70225199  5.71849593  5.71849596
  6.21143386  6.21143398  6.36345361  6.42512632  6.42512632  6.74067685
  6.74067687  7.28514018  7.35180844  7.59616853  7.59616864  9.13096322
 17.3218514  18.19416419 18.19416419 18.4749348  18.72009376 19.51930646
 19.51930652 23.00411068 42.35658549 42.35658549 42.41429957 42.41429957
 42.46219952 42.48706837 42.48965733 42.48965733 42.50927218 42.50927218
 82.64713242 83.28293009 83.28293009 83.65403168 84.24229782 84.24229783
 88.27221753 96.28901958]
   5 ( 0.500  0.000  0.500)   [-10.55429986 -10.55429986  -0.24264195  -0.24264194   0.07359025
   0.07359026] [ 0.919768    0.919768    1.50689676  1.50689677  1.73288855  1.73288855
  2.00866687  2.00866688  2.25253652  2.25253652  2.67010427  2.67010427
  2.67397548  2.67397549  2.70816747  2.70816766  2.83815961  2.83815961
  3.56983579  3.56983637  3.80156629  3.80156631  3.87412814  3.87412815
  4.47864984  4.47867377  4.50512817  4.50512817  4.5283235   4.5283235
  4.68840805  4.68840807  4.9993961   4.99939611  5.07440811  5.07440812
  5.55716391  5.55716489  5.69616337  5.69616338  6.09309367  6.09309368
  6.15305688  6.15307314  6.20940335  6.20940336  6.35889945  6.35889946
  7.05180913  7.05181232  7.42214792  7.42214796  8.29180133  8.29180141
 17.43759581 17.43759581 18.19367636 18.19367637 18.21074213 18.21074238
 19.85894161 19.85894161 42.31246025 42.31246025 42.34736708 42.34736708
 42.47002256 42.47002261 42.49425085 42.49425085 42.66748084 42.66748084
 82.69002605 82.69002605 83.2741199  83.2741199  83.28995766 83.28995769
 90.53422548 90.53422548]
   6 ( 0.500  0.500  0.000)   [-10.55429986 -10.55429986  -0.24264195  -0.24264194   0.07359025
   0.07359026] [ 0.919768    0.919768    1.50689676  1.50689677  1.73288855  1.73288855
  2.00866687  2.00866688  2.25253652  2.25253652  2.67010427  2.67010427
  2.67397548  2.67397549  2.70816753  2.70816758  2.83815961  2.83815961
  3.56983597  3.56983613  3.80156629  3.80156631  3.87412814  3.87412815
  4.47865755  4.47866395  4.50512817  4.50512817  4.5283235   4.5283235
  4.68840805  4.68840807  4.9993961   4.99939611  5.07440811  5.07440812
  5.55716423  5.55716451  5.69616337  5.69616338  6.09309367  6.09309368
  6.15306208  6.1530664   6.20940335  6.20940336  6.35889945  6.35889946
  7.0518102   7.05181107  7.42214792  7.42214799  8.29180134  8.29180157
 17.43759581 17.43759581 18.19367636 18.19367638 18.2107422  18.21074227
 19.85894161 19.85894161 42.31246025 42.31246025 42.34736708 42.34736708
 42.47002258 42.47002259 42.49425085 42.49425085 42.66748084 42.66748084
 82.69002605 82.69002605 83.2741199  83.2741199  83.28995766 83.28995767
 90.53422548 90.53422548]
   7 ( 0.500  0.500  0.500)   [-10.55489764 -10.55361377  -0.39332831  -0.2463375    0.22618018
   0.22618018] [ 1.10236915  1.10236915  1.11218035  1.39531231  1.64520048  1.76121991
  1.79443125  1.79443125  2.0782329   2.0782329   2.54764235  2.87358012
  2.87358012  2.9739112   3.05433019  3.05433025  3.11516425  3.11516425
  3.29365784  3.71907251  3.71907252  3.80635832  3.80635832  3.91488982
  3.95893094  4.12252108  4.25960412  4.25960414  4.471856    4.87215021
  5.06189574  5.1949508   5.19495081  5.34464663  5.40949256  5.56074123
  5.56074131  5.67170938  5.70225199  5.702252    5.71849593  5.71849596
  6.21143387  6.21143398  6.36345335  6.42512631  6.42512631  6.74067683
  6.74067689  7.28514002  7.3518086   7.59616855  7.59616863  9.13096347
 17.32185141 18.19416418 18.19416419 18.47493479 18.72009376 19.51930647
 19.51930652 23.00411079 42.35658549 42.35658549 42.41429957 42.41429957
 42.46219952 42.48706837 42.48965733 42.48965733 42.50927218 42.50927218
 82.64713243 83.28293009 83.28293009 83.65403168 84.24229782 84.24229782
 88.27221753 96.28901961]
    CPU time for get_k_kpts: make_kpt ki>=kj (0,*)      0.15 sec, wall time      0.04 sec
    CPU time for get_k_kpts: make_kpt ki>=kj (1,*)      0.43 sec, wall time      0.10 sec
    CPU time for get_k_kpts: make_kpt ki>=kj (2,*)      0.70 sec, wall time      0.17 sec
    CPU time for get_k_kpts: make_kpt ki>=kj (3,*)      0.98 sec, wall time      0.23 sec
    CPU time for get_k_kpts: make_kpt ki>=kj (4,*)      1.25 sec, wall time      0.29 sec
    CPU time for get_k_kpts: make_kpt ki>=kj (5,*)      1.52 sec, wall time      0.36 sec
    CPU time for get_k_kpts: make_kpt ki>=kj (6,*)      1.80 sec, wall time      0.42 sec
    CPU time for get_k_kpts: make_kpt ki>=kj (7,*)      2.07 sec, wall time      0.50 sec
Monkhorst pack size [2 2 2] ew_eta 3.0566830812214194 ew_cut 2.30320412508748
Ewald components = 0, -1.72482326343322, 1.55476854344923
    CPU time for get_j pass 1      0.25 sec, wall time      0.14 sec
    CPU time for get_j pass 2      0.13 sec, wall time      0.09 sec
    CPU time for vj and vk      9.64 sec, wall time      2.40 sec
Ewald components = 3.0606179073546e-132, -242.469443607053, 213.698400957796
E1 = (-51.30689779491759+5.681267151314797e-18j)  E_coul = (4.3704252890972715+3.158097547208773e-18j)
Extra cycle  E= -75.7075151550773  delta_E= -4.83e-10  |g|= 2.7e-05  |ddm|= 0.00227
    CPU time for scf_cycle  13289.09 sec, wall time   1452.17 sec
    CPU time for SCF  13289.11 sec, wall time   1452.19 sec
converged SCF energy = -75.7075151550773

******** <class 'pyscf.pbc.cc.kccsd_rhf.RCCSD'> ********
CC2 = 0
CCSD nocc = 6, nmo = 86
max_cycle = 50
direct = 1
conv_tol = 1e-07
conv_tol_normt = 1e-05
diis_space = 6
diis_start_cycle = 0
diis_start_energy_diff = 1e+09
max_memory 64000 MB (current use 0 MB)
    CPU time for get_k_kpts: make_kpt ki>=kj (0,*)      0.16 sec, wall time      0.04 sec
    CPU time for get_k_kpts: make_kpt ki>=kj (1,*)      0.42 sec, wall time      0.10 sec
    CPU time for get_k_kpts: make_kpt ki>=kj (2,*)      0.68 sec, wall time      0.15 sec
    CPU time for get_k_kpts: make_kpt ki>=kj (3,*)      0.94 sec, wall time      0.21 sec
    CPU time for get_k_kpts: make_kpt ki>=kj (4,*)      1.21 sec, wall time      0.27 sec
    CPU time for get_k_kpts: make_kpt ki>=kj (5,*)      1.47 sec, wall time      0.33 sec
    CPU time for get_k_kpts: make_kpt ki>=kj (6,*)      1.72 sec, wall time      0.39 sec
    CPU time for get_k_kpts: make_kpt ki>=kj (7,*)      1.99 sec, wall time      0.44 sec
Monkhorst pack size [2 2 2] ew_eta 3.0566830812214194 ew_cut 2.30320412508748
Ewald components = 0, -1.72482326343322, 1.55476854344923
    CPU time for get_j pass 1      0.23 sec, wall time      0.12 sec
    CPU time for get_j pass 2      0.12 sec, wall time      0.07 sec
    CPU time for vj and vk      9.39 sec, wall time      2.20 sec
    CPU time for vnuc pass1: analytic int    212.13 sec, wall time     21.72 sec
    CPU time for contracting Vnuc [0:216]      8.13 sec, wall time      0.91 sec
    CPU time for contracting Vnuc      8.13 sec, wall time      0.91 sec
    CPU time for get_nuc    220.27 sec, wall time     22.63 sec

******** <class 'pyscf.pbc.cc.kccsd_rhf.RCCSD'> ********
CC2 = 0
CCSD nocc = 6, nmo = 86
max_cycle = 50
direct = 1
conv_tol = 1e-07
conv_tol_normt = 1e-05
diis_space = 6
diis_start_cycle = 0
diis_start_energy_diff = 1e+09
max_memory 64000 MB (current use 0 MB)
    CPU time for transforming DF-MP2 integrals      2.91 sec, wall time      1.32 sec
t1 type: <class 'numpy.ndarray'>
t2 type: <class 'numpy.ndarray'>
    CPU time for get_k_kpts: make_kpt ki>=kj (0,*)      0.16 sec, wall time      0.04 sec
    CPU time for get_k_kpts: make_kpt ki>=kj (1,*)      0.42 sec, wall time      0.10 sec
    CPU time for get_k_kpts: make_kpt ki>=kj (2,*)      0.68 sec, wall time      0.15 sec
    CPU time for get_k_kpts: make_kpt ki>=kj (3,*)      0.94 sec, wall time      0.21 sec
    CPU time for get_k_kpts: make_kpt ki>=kj (4,*)      1.20 sec, wall time      0.27 sec
    CPU time for get_k_kpts: make_kpt ki>=kj (5,*)      1.47 sec, wall time      0.34 sec
    CPU time for get_k_kpts: make_kpt ki>=kj (6,*)      1.73 sec, wall time      0.39 sec
    CPU time for get_k_kpts: make_kpt ki>=kj (7,*)      2.01 sec, wall time      0.44 sec
Monkhorst pack size [2 2 2] ew_eta 3.0566830812214194 ew_cut 2.30320412508748
Ewald components = 0, -1.72482326343322, 1.55476854344923
    CPU time for get_j pass 1      0.23 sec, wall time      0.12 sec
    CPU time for get_j pass 2      0.12 sec, wall time      0.07 sec
    CPU time for vj and vk      9.41 sec, wall time      2.21 sec
    CPU time for vnuc pass1: analytic int    212.20 sec, wall time     21.76 sec
    CPU time for contracting Vnuc [0:216]      7.73 sec, wall time      0.87 sec
    CPU time for contracting Vnuc      7.73 sec, wall time      0.87 sec
    CPU time for get_nuc    219.92 sec, wall time     22.63 sec
Ewald components = 3.0606179073546e-132, -242.469443607053, 213.698400957796
    CPU time for vnuc pass1: analytic int    212.62 sec, wall time     21.74 sec
    CPU time for contracting Vnuc [0:216]      8.51 sec, wall time      0.97 sec
    CPU time for contracting Vnuc      8.51 sec, wall time      0.97 sec
    CPU time for get_nuc    221.13 sec, wall time     22.71 sec
E1 = (-51.30689779491759+5.681267151314797e-18j)  E_coul = (4.3704252890972715+3.1580182154392523e-18j)
using HDF5 ERI storage
    CPU time for transforming oopq     79.27 sec, wall time     34.22 sec
    CPU time for transforming ovpq    312.15 sec, wall time     87.65 sec
    CPU time for transforming vvvv      9.04 sec, wall time      2.51 sec
    CPU time for CCSD integral transformation    851.26 sec, wall time    172.01 sec
    CPU time for EOM-CCSD shared one-electron intermediates      8.94 sec, wall time      7.10 sec
IMDS key to save: Loo , type: <class 'numpy.ndarray'>
IMDS key to save: Lvv , type: <class 'numpy.ndarray'>
IMDS key to save: Fov , type: <class 'numpy.ndarray'>

******** <class 'pyscf.pbc.cc.eom_kccsd_rhf.EOMIP'> ********
max_space = 20
max_cycle = 50
conv_tol = 1e-07
partition = mp
max_memory 64000 MB (current use 0 MB)
tol 1e-07  toloose 0.000316228
max_cycle 50  max_space 28  max_memory 2000  incore True
davidson 0 3  |r|= 0.325  e= [-0.24679695 -0.24679695 -0.24679694]  max|de|= -0.247  lindep=    1
davidson 1 6  |r|= 0.00818  e= [-0.32798646 -0.32798646 -0.32798646]  max|de|= -0.0812  lindep= 0.935
davidson 2 9  |r|= 4.11e-07  e= [-0.3278609 -0.3278609 -0.3278609]  max|de|= 0.000126  lindep= 0.827
root 0 converged  |r|= 9.39e-13  e= -0.32786090434996074  max|de|= -2.84e-09
root 1 converged  |r|= 1.85e-13  e= -0.3278609042746835  max|de|= -2.84e-09
root 2 converged  |r|= 9.17e-11  e= -0.3278609022636724  max|de|= -2.84e-09
converged 3 12  |r|= 9.17e-11  e= [-0.3278609 -0.3278609 -0.3278609]  max|de|= -2.84e-09
EOM-CCSD root 0 E = -0.3278609043499607  qpwt = 0.976883
EOM-CCSD root 1 E = -0.3278609042746835  qpwt = 0.976883
EOM-CCSD root 2 E = -0.3278609022636724  qpwt = 0.976883
    CPU time for EOM-CCSD      0.74 sec, wall time      0.60 sec

******** <class 'pyscf.pbc.cc.eom_kccsd_rhf.CVSEOMIP'> ********
max_space = 20
max_cycle = 50
conv_tol = 1e-07
partition = mp
max_memory 64000 MB (current use 0 MB)
tol 1e-07  toloose 0.000316228
max_cycle 50  max_space 24  max_memory 2000  incore True
davidson 0 2  |r|= 1.26  e= [10.59548917 10.59793016]  max|de|= 10.6  lindep=    1
davidson 1 4  |r|=  0.2  e= [10.16514705 10.16825249]  max|de|= -0.43  lindep= 0.817
davidson 2 6  |r|= 0.00135  e= [10.17067855 10.17376232]  max|de|= 0.00553  lindep= 0.725
Throwing out eigenvector 0 with norm=3.91e-10
davidson 3 8  |r|= 1.85e-06  e= [10.17067121 10.17375097]  max|de|= -1.14e-05  lindep= 0.816
root 0 converged  |r|= 3.91e-10  e= 10.170671207563023  max|de|=    0
root 1 converged  |r|= 1.57e-09  e= 10.173750972222871  max|de|= 1.53e-09
converged 4 9  |r|= 1.57e-09  e= [10.17067121 10.17375097]  max|de|= 1.53e-09
EOM-CCSD root 0 E = 10.17067120756302  qpwt = 0.918716
EOM-CCSD root 1 E = 10.17375097222287  qpwt = 0.918448
    CPU time for EOM-CCSD      0.61 sec, wall time      0.48 sec
