PBC pseudo-potentials keywords for dict_keys(['default']) found in .ecp
#INFO: **** input file is /burg/ccce/users/eav2136/projects/core_level_spectroscopy/04_hf_bandstructure/hf_bandstructure.py ****
#!/usr/bin/env python3
from bandstructure import make_cell, get_all_electron_bandstructure
import sys
from fileutils import load

input_file = sys.argv[1]
data = load("data/{}".format(input_file))
cell = make_cell(data["formula"], data["basis"], pseudo=data["pseudo"])
vbmax_kpt, cbmin_kpt, g_vbmax, g_cbmin = get_all_electron_bandstructure(data["formula"], cell, data["path"], data["npoints"], data["kmesh"], e_kn_file=data["e_kn_file"], output_file=data["output_file"])
print("vbmax_kpt: {}".format(vbmax_kpt))
print("cbmin_kpt: {}".format(cbmin_kpt))
print("g_vbmax: {}".format(g_vbmax))
print("g_cbmin: {}".format(g_cbmin))
#INFO: ******************** input file end ********************


System: uname_result(system='Linux', node='g145', release='4.18.0-193.el8.x86_64', version='#1 SMP Fri Mar 27 14:35:58 UTC 2020', machine='x86_64')  Threads 32
Python 3.10.12 (main, Jul 29 2023, 11:27:27) [GCC 13.2.0]
numpy 1.25.1  scipy 1.10.1
Date: Wed Jan 31 14:29:24 2024
PySCF version 2.0.1
PySCF path  /burg/berkelbach/users/eav2136/builds/pyscf/projected-cvs/pyscf
GIT ORIG_HEAD 0bfbc692adf3ea63b8a509210433219cd1c472a2
GIT HEAD (branch projected-cvs) e14caaa2dddc538b9be2d86f01e5b456fc92da36

[ENV] PYSCF_TMPDIR /burg/ccce/users/eav2136/projects/core_level_spectroscopy/04_hf_bandstructure/tmp
[ENV] PYSCF_MAX_MEMORY 700000
[CONFIG] DEBUG = False
[CONFIG] MAX_MEMORY = 700000
[CONFIG] TMPDIR = /burg/ccce/users/eav2136/projects/core_level_spectroscopy/04_hf_bandstructure/tmp
[CONFIG] UNIT = angstrom
[CONFIG] VERBOSE = 3
[CONFIG] conf_file = None
[INPUT] verbose = 7
[INPUT] max_memory = 700000 
[INPUT] num. atoms = 4
[INPUT] num. electrons = 52
[INPUT] charge = 0
[INPUT] spin (= nelec alpha-beta = 2S) = 0
[INPUT] symmetry False subgroup None
[INPUT] Mole.unit = B
[INPUT]  1 Zn     0.000000000000   0.000000000000   0.000000000000 AA    0.000000000000   0.000000000000   0.000000000000 Bohr
[INPUT]  2 O      0.000000000000   1.876388240258   0.622916621980 AA    0.000000000000   3.545859877442   1.177141813981 Bohr
[INPUT]  3 Zn     0.000000000000   1.876388240258   2.599999813481 AA    0.000000000000   3.545859877442   4.913287571400 Bohr
[INPUT]  4 O      0.000000000000   0.000000000000   3.222916435461 AA    0.000000000000   0.000000000000   6.090429385381 Bohr
[INPUT] ---------------- BASIS SET ---------------- 
[INPUT] l, kappa, [nprim/nctr], expnt,             c_1 c_2 ...
[INPUT] Zn
[INPUT] 0    0    [13   /1   ]  114.485022        0.000429
                                61.99643          -0.019339
                                40.117132         0.086254
                                20.119649         -0.088955
                                10.171676         -0.402671
                                5.601641          0.067304
                                2.864122          0.479215
                                1.592779          0.50396
                                0.826525          0.222088
                                0.263975          0.012203
                                0.145302          -0.0043
                                0.068195          0.001243
                                0.031465          -0.000267
[INPUT] 0    0    [13   /1   ]  114.485022        -0.000109
                                61.99643          0.004459
                                40.117132         -0.020067
                                20.119649         0.022338
                                10.171676         0.096698
                                5.601641          -0.021966
                                2.864122          -0.128768
                                1.592779          -0.181706
                                0.826525          -0.162311
                                0.263975          0.116264
                                0.145302          0.411314
                                0.068195          0.494257
                                0.031465          0.138103
[INPUT] 0    0    [13   /1   ]  114.485022        0.000666
                                61.99643          0.006269
                                40.117132         -0.046603
                                20.119649         0.050399
                                10.171676         0.363493
                                5.601641          -0.24284
                                2.864122          -0.382281
                                1.592779          -0.861567
                                0.826525          0.706077
                                0.263975          1.495001
                                0.145302          -0.453994
                                0.068195          -0.597822
                                0.031465          -0.256117
[INPUT] 0    0    [13   /1   ]  114.485022        0.000704
                                61.99643          0.012841
                                40.117132         -0.08591
                                20.119649         0.117982
                                10.171676         0.630164
                                5.601641          -0.600344
                                2.864122          -1.24906
                                1.592779          -0.329498
                                0.826525          2.592469
                                0.263975          -1.004481
                                0.145302          -1.379514
                                0.068195          1.046842
                                0.031465          0.324676
[INPUT] 0    0    [1    /1   ]  0.031465             1
[INPUT] 1    0    [13   /1   ]  158.770986        -0.000153
                                75.802876         0.001893
                                44.547824         0.010461
                                31.445269         -0.045141
                                13.080125         -0.084201
                                7.788616          0.104973
                                4.19504           0.307714
                                2.362276          0.368563
                                1.302584          0.286336
                                0.660704          0.095156
                                0.249042          0.005851
                                0.091781          -3.4e-05
                                0.048931          0.000252
[INPUT] 1    0    [13   /1   ]  158.770986        5.3e-05
                                75.802876         -0.000571
                                44.547824         -0.001073
                                31.445269         0.007463
                                13.080125         0.018676
                                7.788616          -0.02809
                                4.19504           -0.054438
                                2.362276          -0.093744
                                1.302584          -0.054169
                                0.660704          -0.007972
                                0.249042          0.356198
                                0.091781          0.412399
                                0.048931          0.361321
[INPUT] 1    0    [13   /1   ]  158.770986        -0.00017
                                75.802876         0.000604
                                44.547824         -0.019987
                                31.445269         0.061153
                                13.080125         0.067317
                                7.788616          -0.139211
                                4.19504           -0.527041
                                2.362276          -0.176194
                                1.302584          0.037129
                                0.660704          1.079322
                                0.249042          -0.050149
                                0.091781          -0.688971
                                0.048931          0.037331
[INPUT] 1    0    [13   /1   ]  158.770986        -0.000781
                                75.802876         0.007855
                                44.547824         -0.008671
                                31.445269         -0.040553
                                13.080125         -0.200062
                                7.788616          0.528599
                                4.19504           0.528552
                                2.362276          0.243576
                                1.302584          -1.807182
                                0.660704          0.629496
                                0.249042          1.137613
                                0.091781          -1.06715
                                0.048931          0.02219
[INPUT] 1    0    [1    /1   ]  0.048931             1
[INPUT] 2    0    [11   /1   ]  270.014061        -1.6e-05
                                100.161579        0.000696
                                43.530609         0.013536
                                21.262419         0.06935
                                10.577821         0.149559
                                5.34362           0.239588
                                2.704857          0.286744
                                1.353018          0.271459
                                0.660873          0.202426
                                0.309149          0.103307
                                0.133879          0.023211
[INPUT] 2    0    [11   /1   ]  270.014061        1.3e-05
                                100.161579        -0.000889
                                43.530609         -0.01864
                                21.262419         -0.094646
                                10.577821         -0.215659
                                5.34362           -0.322469
                                2.704857          -0.197529
                                1.353018          0.164448
                                0.660873          0.410017
                                0.309149          0.327838
                                0.133879          0.105749
[INPUT] 2    0    [11   /1   ]  270.014061        7e-06
                                100.161579        0.000868
                                43.530609         0.021631
                                21.262419         0.107748
                                10.577821         0.278997
                                5.34362           0.314543
                                2.704857          -0.241926
                                1.353018          -0.602415
                                0.660873          -0.118013
                                0.309149          0.545482
                                0.133879          0.363829
[INPUT] 2    0    [1    /1   ]  0.133879             1
[INPUT] 3    0    [1    /1   ]  1.520399             1
[INPUT] 3    0    [1    /1   ]  6.000349             1
[INPUT] 4    0    [1    /1   ]  4.099533             1
[INPUT] O
[INPUT] 0    0    [9    /1   ]  54.775216         -0.0012444
                                25.616801         0.010733
                                11.980245         0.0018889
                                6.992317          -0.1742537
                                2.620277          0.0017622
                                1.225429          0.3161846
                                0.577797          0.4512023
                                0.268022          0.3121534
                                0.125346          0.0511167
[INPUT] 0    0    [1    /1   ]  1.686633             1
[INPUT] 0    0    [1    /1   ]  0.237997             1
[INPUT] 1    0    [9    /1   ]  22.217266         0.0104866
                                10.74755          0.0366435
                                5.315785          0.0803674
                                2.660761          0.162701
                                1.331816          0.2377791
                                0.678626          0.2811422
                                0.333673          0.2643189
                                0.167017          0.1466014
                                0.083598          0.0458145
[INPUT] 1    0    [1    /1   ]  0.600621             1
[INPUT] 1    0    [1    /1   ]  0.184696             1
[INPUT] 2    0    [1    /1   ]  2.404278             1
[INPUT] 2    0    [1    /1   ]  0.66934              1
[INPUT] 3    0    [1    /1   ]  1.423104             1

Ewald components = 1.15473660899624e-35, -1203.36764844879, 949.599005991309
nuclear repulsion = -253.768642457477
number of shells = 52
number of NR pGTOs = 932
number of NR cGTOs = 184
basis = ccecpccpvtz
ecp = {'default': 'ccecp'}
bas 0, expnt(s) = [1.14485022e+02 6.19964300e+01 4.01171320e+01 2.01196490e+01
 1.01716760e+01 5.60164100e+00 2.86412200e+00 1.59277900e+00
 8.26525000e-01 2.63975000e-01 1.45302000e-01 6.81950000e-02
 3.14650000e-02]
bas 1, expnt(s) = [1.14485022e+02 6.19964300e+01 4.01171320e+01 2.01196490e+01
 1.01716760e+01 5.60164100e+00 2.86412200e+00 1.59277900e+00
 8.26525000e-01 2.63975000e-01 1.45302000e-01 6.81950000e-02
 3.14650000e-02]
bas 2, expnt(s) = [1.14485022e+02 6.19964300e+01 4.01171320e+01 2.01196490e+01
 1.01716760e+01 5.60164100e+00 2.86412200e+00 1.59277900e+00
 8.26525000e-01 2.63975000e-01 1.45302000e-01 6.81950000e-02
 3.14650000e-02]
bas 3, expnt(s) = [1.14485022e+02 6.19964300e+01 4.01171320e+01 2.01196490e+01
 1.01716760e+01 5.60164100e+00 2.86412200e+00 1.59277900e+00
 8.26525000e-01 2.63975000e-01 1.45302000e-01 6.81950000e-02
 3.14650000e-02]
bas 4, expnt(s) = [0.031465]
bas 5, expnt(s) = [1.58770986e+02 7.58028760e+01 4.45478240e+01 3.14452690e+01
 1.30801250e+01 7.78861600e+00 4.19504000e+00 2.36227600e+00
 1.30258400e+00 6.60704000e-01 2.49042000e-01 9.17810000e-02
 4.89310000e-02]
bas 6, expnt(s) = [1.58770986e+02 7.58028760e+01 4.45478240e+01 3.14452690e+01
 1.30801250e+01 7.78861600e+00 4.19504000e+00 2.36227600e+00
 1.30258400e+00 6.60704000e-01 2.49042000e-01 9.17810000e-02
 4.89310000e-02]
bas 7, expnt(s) = [1.58770986e+02 7.58028760e+01 4.45478240e+01 3.14452690e+01
 1.30801250e+01 7.78861600e+00 4.19504000e+00 2.36227600e+00
 1.30258400e+00 6.60704000e-01 2.49042000e-01 9.17810000e-02
 4.89310000e-02]
bas 8, expnt(s) = [1.58770986e+02 7.58028760e+01 4.45478240e+01 3.14452690e+01
 1.30801250e+01 7.78861600e+00 4.19504000e+00 2.36227600e+00
 1.30258400e+00 6.60704000e-01 2.49042000e-01 9.17810000e-02
 4.89310000e-02]
bas 9, expnt(s) = [0.048931]
bas 10, expnt(s) = [2.70014061e+02 1.00161579e+02 4.35306090e+01 2.12624190e+01
 1.05778210e+01 5.34362000e+00 2.70485700e+00 1.35301800e+00
 6.60873000e-01 3.09149000e-01 1.33879000e-01]
bas 11, expnt(s) = [2.70014061e+02 1.00161579e+02 4.35306090e+01 2.12624190e+01
 1.05778210e+01 5.34362000e+00 2.70485700e+00 1.35301800e+00
 6.60873000e-01 3.09149000e-01 1.33879000e-01]
bas 12, expnt(s) = [2.70014061e+02 1.00161579e+02 4.35306090e+01 2.12624190e+01
 1.05778210e+01 5.34362000e+00 2.70485700e+00 1.35301800e+00
 6.60873000e-01 3.09149000e-01 1.33879000e-01]
bas 13, expnt(s) = [0.133879]
bas 14, expnt(s) = [1.520399]
bas 15, expnt(s) = [6.000349]
bas 16, expnt(s) = [4.099533]
bas 17, expnt(s) = [54.775216 25.616801 11.980245  6.992317  2.620277  1.225429  0.577797
  0.268022  0.125346]
bas 18, expnt(s) = [1.686633]
bas 19, expnt(s) = [0.237997]
bas 20, expnt(s) = [22.217266 10.74755   5.315785  2.660761  1.331816  0.678626  0.333673
  0.167017  0.083598]
bas 21, expnt(s) = [0.600621]
bas 22, expnt(s) = [0.184696]
bas 23, expnt(s) = [2.404278]
bas 24, expnt(s) = [0.66934]
bas 25, expnt(s) = [1.423104]
bas 26, expnt(s) = [1.14485022e+02 6.19964300e+01 4.01171320e+01 2.01196490e+01
 1.01716760e+01 5.60164100e+00 2.86412200e+00 1.59277900e+00
 8.26525000e-01 2.63975000e-01 1.45302000e-01 6.81950000e-02
 3.14650000e-02]
bas 27, expnt(s) = [1.14485022e+02 6.19964300e+01 4.01171320e+01 2.01196490e+01
 1.01716760e+01 5.60164100e+00 2.86412200e+00 1.59277900e+00
 8.26525000e-01 2.63975000e-01 1.45302000e-01 6.81950000e-02
 3.14650000e-02]
bas 28, expnt(s) = [1.14485022e+02 6.19964300e+01 4.01171320e+01 2.01196490e+01
 1.01716760e+01 5.60164100e+00 2.86412200e+00 1.59277900e+00
 8.26525000e-01 2.63975000e-01 1.45302000e-01 6.81950000e-02
 3.14650000e-02]
bas 29, expnt(s) = [1.14485022e+02 6.19964300e+01 4.01171320e+01 2.01196490e+01
 1.01716760e+01 5.60164100e+00 2.86412200e+00 1.59277900e+00
 8.26525000e-01 2.63975000e-01 1.45302000e-01 6.81950000e-02
 3.14650000e-02]
bas 30, expnt(s) = [0.031465]
bas 31, expnt(s) = [1.58770986e+02 7.58028760e+01 4.45478240e+01 3.14452690e+01
 1.30801250e+01 7.78861600e+00 4.19504000e+00 2.36227600e+00
 1.30258400e+00 6.60704000e-01 2.49042000e-01 9.17810000e-02
 4.89310000e-02]
bas 32, expnt(s) = [1.58770986e+02 7.58028760e+01 4.45478240e+01 3.14452690e+01
 1.30801250e+01 7.78861600e+00 4.19504000e+00 2.36227600e+00
 1.30258400e+00 6.60704000e-01 2.49042000e-01 9.17810000e-02
 4.89310000e-02]
bas 33, expnt(s) = [1.58770986e+02 7.58028760e+01 4.45478240e+01 3.14452690e+01
 1.30801250e+01 7.78861600e+00 4.19504000e+00 2.36227600e+00
 1.30258400e+00 6.60704000e-01 2.49042000e-01 9.17810000e-02
 4.89310000e-02]
bas 34, expnt(s) = [1.58770986e+02 7.58028760e+01 4.45478240e+01 3.14452690e+01
 1.30801250e+01 7.78861600e+00 4.19504000e+00 2.36227600e+00
 1.30258400e+00 6.60704000e-01 2.49042000e-01 9.17810000e-02
 4.89310000e-02]
bas 35, expnt(s) = [0.048931]
bas 36, expnt(s) = [2.70014061e+02 1.00161579e+02 4.35306090e+01 2.12624190e+01
 1.05778210e+01 5.34362000e+00 2.70485700e+00 1.35301800e+00
 6.60873000e-01 3.09149000e-01 1.33879000e-01]
bas 37, expnt(s) = [2.70014061e+02 1.00161579e+02 4.35306090e+01 2.12624190e+01
 1.05778210e+01 5.34362000e+00 2.70485700e+00 1.35301800e+00
 6.60873000e-01 3.09149000e-01 1.33879000e-01]
bas 38, expnt(s) = [2.70014061e+02 1.00161579e+02 4.35306090e+01 2.12624190e+01
 1.05778210e+01 5.34362000e+00 2.70485700e+00 1.35301800e+00
 6.60873000e-01 3.09149000e-01 1.33879000e-01]
bas 39, expnt(s) = [0.133879]
bas 40, expnt(s) = [1.520399]
bas 41, expnt(s) = [6.000349]
bas 42, expnt(s) = [4.099533]
bas 43, expnt(s) = [54.775216 25.616801 11.980245  6.992317  2.620277  1.225429  0.577797
  0.268022  0.125346]
bas 44, expnt(s) = [1.686633]
bas 45, expnt(s) = [0.237997]
bas 46, expnt(s) = [22.217266 10.74755   5.315785  2.660761  1.331816  0.678626  0.333673
  0.167017  0.083598]
bas 47, expnt(s) = [0.600621]
bas 48, expnt(s) = [0.184696]
bas 49, expnt(s) = [2.404278]
bas 50, expnt(s) = [0.66934]
bas 51, expnt(s) = [1.423104]
CPU time:         1.53
lattice vectors  a1 [6.141609464, 0.000000000, 0.000000000]
                 a2 [-3.070804732, 5.318789816, 0.000000000]
                 a3 [0.000000000, 0.000000000, 9.826575143]
dimension = 3
low_dim_ft_type = None
Cell volume = 320.994
rcut = 39.51314213157738 (nimgs = [8 8 5])
lattice sum = 1625 cells
precision = 1e-08
pseudo = {}
ke_cutoff = 3192.585083233773
    = [136 136 250] mesh (4624000 PWs)


******** <class 'pyscf.pbc.scf.khf.KRHF'> ********
method = KRHF-KSCF-RHF-SCF-RHF
initial guess = minao
damping factor = 0
level_shift factor = 0
DIIS = <class 'pyscf.scf.diis.CDIIS'>
diis_start_cycle = 1
diis_space = 8
SCF conv_tol = 1e-07
SCF conv_tol_grad = None
SCF max_cycles = 50
direct_scf = True
direct_scf_tol = 1e-13
chkfile to save SCF result = /burg/ccce/users/eav2136/projects/core_level_spectroscopy/04_hf_bandstructure/tmp/tmpy__k9rcb
max_memory 700000 MB (current use 110 MB)


******** PBC SCF flags ********
N kpts = 8
kpts = [[0.         0.         0.        ]
 [0.         0.         0.31970372]
 [0.         0.5906593  0.        ]
 [0.         0.5906593  0.31970372]
 [0.51152596 0.29532965 0.        ]
 [0.51152596 0.29532965 0.31970372]
 [0.51152596 0.88598895 0.        ]
 [0.51152596 0.88598895 0.31970372]]
Exchange divergence treatment (exxdiv) = ewald
Monkhorst pack size [2 2 2] ew_eta 1.2528073871489522 ew_cut 5.612295470572105
Ewald components = 6.40452191691014e-106, -0.707210608233433, 0.614458283656676
    madelung (= occupied orbital energy shift) = 0.18550464915351483
    Total energy shift due to Ewald probe charge = -1/2 * Nelec*madelung = -4.82312087799
DF object = <pyscf.pbc.df.df.GDF object at 0x155535c4a200>
Set gradient conv threshold to 0.000316228
Big error detected in the electron number of initial guess density matrix (Ne/cell = 52.2368)!
  This can cause huge error in Fock matrix and lead to instability in SCF for low-dimensional systems.
  DM is normalized wrt the number of electrons 52.0
    CPU time for vnuc pass1: analytic int  13050.09 sec, wall time    411.31 sec
    CPU time for contracting Vnuc [0:1296]   1327.54 sec, wall time     42.18 sec
    CPU time for contracting Vnuc   1327.54 sec, wall time     42.18 sec
    CPU time for get_nuc  14377.91 sec, wall time    453.50 sec
nao 408 -> nao 184


******** <class 'pyscf.pbc.df.df.GDF'> ********
mesh = [9, 9, 17] (1377 PWs)
auxbasis = None
eta = 0.2
exp_to_discard = None
_cderi_to_save = /burg/ccce/users/eav2136/projects/core_level_spectroscopy/04_hf_bandstructure/tmp/tmp3zclzqa6
len(kpts) = 8
    kpts = [[0.         0.         0.        ]
 [0.         0.         0.31970372]
 [0.         0.5906593  0.        ]
 [0.         0.5906593  0.31970372]
 [0.51152596 0.29532965 0.        ]
 [0.51152596 0.29532965 0.31970372]
 [0.51152596 0.88598895 0.        ]
 [0.51152596 0.88598895 0.31970372]]
Even tempered Gaussians are generated as DF auxbasis for  Zn O
  ETB auxbasis for Zn  [[0, [64.44032, 1]], [0, [32.22016, 1]], [0, [16.11008, 1]], [0, [8.05504, 1]], [0, [4.02752, 1]], [0, [2.01376, 1]], [0, [1.00688, 1]], [0, [0.50344, 1]], [0, [0.25172, 1]], [0, [0.12586, 1]], [0, [0.06293, 1]], [1, [80.35924839208091, 1]], [1, [40.17962419604046, 1]], [1, [20.08981209802023, 1]], [1, [10.044906049010114, 1]], [1, [5.022453024505057, 1]], [1, [2.5112265122525286, 1]], [1, [1.2556132561262643, 1]], [1, [0.6278066280631321, 1]], [1, [0.31390331403156607, 1]], [1, [0.15695165701578304, 1]], [1, [0.07847582850789152, 1]], [2, [100.210688, 1]], [2, [50.105344, 1]], [2, [25.052672, 1]], [2, [12.526336, 1]], [2, [6.263168, 1]], [2, [3.131584, 1]], [2, [1.565792, 1]], [2, [0.782896, 1]], [2, [0.391448, 1]], [2, [0.195724, 1]], [2, [0.097862, 1]], [3, [82.87971181031595, 1]], [3, [41.43985590515798, 1]], [3, [20.71992795257899, 1]], [3, [10.359963976289494, 1]], [3, [5.179981988144747, 1]], [3, [2.5899909940723735, 1]], [3, [1.2949954970361868, 1]], [3, [0.6474977485180934, 1]], [3, [0.3237488742590467, 1]], [3, [0.16187443712952335, 1]], [4, [68.546048, 1]], [4, [34.273024, 1]], [4, [17.136512, 1]], [4, [8.568256, 1]], [4, [4.284128, 1]], [4, [2.142064, 1]], [4, [1.071032, 1]], [4, [0.535516, 1]], [4, [0.267758, 1]], [5, [28.874534501273192, 1]], [5, [14.437267250636596, 1]], [5, [7.218633625318298, 1]], [5, [3.609316812659149, 1]], [5, [1.8046584063295745, 1]], [5, [0.9023292031647873, 1]], [6, [12.163192, 1]], [6, [6.081596, 1]], [6, [3.040798, 1]]]
  ETB auxbasis for O  [[0, [64.177152, 1]], [0, [32.088576, 1]], [0, [16.044288, 1]], [0, [8.022144, 1]], [0, [4.011072, 1]], [0, [2.005536, 1]], [0, [1.002768, 1]], [0, [0.501384, 1]], [0, [0.250692, 1]], [1, [52.41108427692326, 1]], [1, [26.20554213846163, 1]], [1, [13.102771069230815, 1]], [1, [6.551385534615408, 1]], [1, [3.275692767307704, 1]], [1, [1.637846383653852, 1]], [1, [0.818923191826926, 1]], [1, [0.409461595913463, 1]], [1, [0.2047307979567315, 1]], [2, [42.802176, 1]], [2, [21.401088, 1]], [2, [10.700544, 1]], [2, [5.350272, 1]], [2, [2.675136, 1]], [2, [1.337568, 1]], [2, [0.668784, 1]], [2, [0.334392, 1]], [2, [0.167196, 1]], [3, [7.569571782318998, 1]], [3, [3.784785891159499, 1]], [3, [1.8923929455797495, 1]], [3, [0.9461964727898747, 1]], [3, [0.47309823639493737, 1]], [4, [5.35472, 1]], [4, [2.67736, 1]], [4, [1.33868, 1]]]
num shells = 192, num cGTOs = 996
Drop 0 primitive fitting functions
make aux basis, num shells = 192, num cGTOs = 996
auxcell.rcut 21.766279220945407
make compensating basis, num shells = 24, num cGTOs = 148
chgcell.rcut 11.482117703874595
    CPU time for 3c2e 1107092.84 sec, wall time  35383.02 sec
Num uniq kpts 14
uniq_kpts [[ 0.          0.          0.        ]
 [ 0.          0.         -0.31970372]
 [ 0.         -0.5906593   0.        ]
 [ 0.         -0.5906593   0.31970372]
 [ 0.         -0.5906593  -0.31970372]
 [-0.51152596 -0.29532965  0.        ]
 [-0.51152596 -0.29532965  0.31970372]
 [-0.51152596  0.29532965  0.        ]
 [-0.51152596  0.29532965  0.31970372]
 [-0.51152596 -0.29532965 -0.31970372]
 [-0.51152596  0.29532965 -0.31970372]
 [-0.51152596 -0.88598895  0.        ]
 [-0.51152596 -0.88598895  0.31970372]
 [-0.51152596 -0.88598895 -0.31970372]]
max_memory 698037.221376 (MB)  blocksize 15254309
Cholesky decomposition for j2c at kpt 0
DF metric linear dependency for kpt 0
cond = -5.608e+15, drop 59 bfns
Symmetry pattern (k - [0. 0. 0.])*a= 2n pi
    make_kpt for uniq_kptji_ids [0]
kpt = [0. 0. 0.]
adapted_ji_idx = [ 0  2  5  9 14 20 27 35]
memory = 1705.0624
int3c2e [1/1], AO [0:52], ncol = 17020
Symmetry pattern (k + [0. 0. 0.])*a= 2n pi
    make_kpt for [0]
Cholesky decomposition for j2c at kpt 1
DF metric linear dependency for kpt 1
cond = -7.649e+15, drop 58 bfns
Symmetry pattern (k - [ 0.          0.         -0.31970372])*a= 2n pi
    make_kpt for uniq_kptji_ids [1]
kpt = [ 0.          0.         -0.31970372]
adapted_ji_idx = [ 1  8 19 34]
memory = 1947.758592
int3c2e [1/1], AO [0:52], ncol = 33856
Symmetry pattern (k + [ 0.          0.         -0.31970372])*a= 2n pi
    make_kpt for [1]
Cholesky decomposition for j2c at kpt 2
DF metric linear dependency for kpt 2
cond = -2.482e+15, drop 60 bfns
Symmetry pattern (k - [ 0.        -0.5906593  0.       ])*a= 2n pi
    make_kpt for uniq_kptji_ids [2]
kpt = [ 0.        -0.5906593  0.       ]
adapted_ji_idx = [ 3  7 25 33]
memory = 2031.67744
int3c2e [1/1], AO [0:52], ncol = 33856
Symmetry pattern (k + [ 0.        -0.5906593  0.       ])*a= 2n pi
    make_kpt for [2]
Cholesky decomposition for j2c at kpt 3
DF metric linear dependency for kpt 3
cond = -1.015e+15, drop 58 bfns
Symmetry pattern (k - [ 0.         -0.5906593   0.31970372])*a= 2n pi
    make_kpt for uniq_kptji_ids [3 4]
kpt = [ 0.         -0.5906593   0.31970372]
adapted_ji_idx = [ 4 26]
memory = 2334.633984
int3c2e [1/1], AO [0:52], ncol = 33856
kpt = [ 0.         -0.5906593  -0.31970372]
adapted_ji_idx = [ 6 32]
memory = 2415.69792
int3c2e [1/1], AO [0:52], ncol = 33856
Symmetry pattern (k + [ 0.         -0.5906593   0.31970372])*a= 2n pi
    make_kpt for [3 4]
Cholesky decomposition for j2c at kpt 5
DF metric linear dependency for kpt 5
cond = -2.25e+15, drop 60 bfns
Symmetry pattern (k - [-0.51152596 -0.29532965  0.        ])*a= 2n pi
    make_kpt for uniq_kptji_ids [5]
kpt = [-0.51152596 -0.29532965  0.        ]
adapted_ji_idx = [10 16 23 31]
memory = 2410.602496
int3c2e [1/1], AO [0:52], ncol = 33856
Symmetry pattern (k + [-0.51152596 -0.29532965  0.        ])*a= 2n pi
    make_kpt for [5]
Cholesky decomposition for j2c at kpt 6
DF metric linear dependency for kpt 6
cond = -1.647e+16, drop 58 bfns
Symmetry pattern (k - [-0.51152596 -0.29532965  0.31970372])*a= 2n pi
    make_kpt for uniq_kptji_ids [6 9]
kpt = [-0.51152596 -0.29532965  0.31970372]
adapted_ji_idx = [11 24]
memory = 2421.231616
int3c2e [1/1], AO [0:52], ncol = 33856
kpt = [-0.51152596 -0.29532965 -0.31970372]
adapted_ji_idx = [15 30]
memory = 2442.031104
int3c2e [1/1], AO [0:52], ncol = 33856
Symmetry pattern (k + [-0.51152596 -0.29532965  0.31970372])*a= 2n pi
    make_kpt for [6 9]
Cholesky decomposition for j2c at kpt 7
DF metric linear dependency for kpt 7
cond = -7.182e+15, drop 60 bfns
Symmetry pattern (k - [-0.51152596  0.29532965  0.        ])*a= 2n pi
    make_kpt for uniq_kptji_ids [ 7 11]
kpt = [-0.51152596  0.29532965  0.        ]
adapted_ji_idx = [12 18]
memory = 2435.301376
int3c2e [1/1], AO [0:52], ncol = 33856
kpt = [-0.51152596 -0.88598895  0.        ]
adapted_ji_idx = [21 29]
memory = 2453.475328
int3c2e [1/1], AO [0:52], ncol = 33856
Symmetry pattern (k + [-0.51152596  0.29532965  0.        ])*a= 2n pi
    make_kpt for [ 7 11]
Cholesky decomposition for j2c at kpt 8
DF metric linear dependency for kpt 8
cond = -5.442e+18, drop 58 bfns
Symmetry pattern (k - [-0.51152596  0.29532965  0.31970372])*a= 2n pi
    make_kpt for uniq_kptji_ids [ 8 10 12 13]
kpt = [-0.51152596  0.29532965  0.31970372]
adapted_ji_idx = [13]
memory = 2439.467008
int3c2e [1/1], AO [0:52], ncol = 33856
kpt = [-0.51152596  0.29532965 -0.31970372]
adapted_ji_idx = [17]
memory = 2553.745408
int3c2e [1/1], AO [0:52], ncol = 33856
kpt = [-0.51152596 -0.88598895  0.31970372]
adapted_ji_idx = [22]
memory = 2571.354112
int3c2e [1/1], AO [0:52], ncol = 33856
kpt = [-0.51152596 -0.88598895 -0.31970372]
adapted_ji_idx = [28]
memory = 2573.328384
int3c2e [1/1], AO [0:52], ncol = 33856
Symmetry pattern (k + [-0.51152596  0.29532965  0.31970372])*a= 2n pi
    make_kpt for [ 8 10 12 13]
    CPU time for j3c 1151998.77 sec, wall time  37305.90 sec
    CPU time for Init get_k_kpts 1151999.47 sec, wall time  37305.93 sec
    CPU time for get_k_kpts: make_kpt ki>=kj (0,*)     23.63 sec, wall time      1.33 sec
    CPU time for get_k_kpts: make_kpt ki>=kj (1,*)     47.75 sec, wall time      1.56 sec
    CPU time for get_k_kpts: make_kpt ki>=kj (2,*)     68.82 sec, wall time      2.27 sec
    CPU time for get_k_kpts: make_kpt ki>=kj (3,*)     84.40 sec, wall time      2.82 sec
    CPU time for get_k_kpts: make_kpt ki>=kj (4,*)    105.51 sec, wall time      3.52 sec
    CPU time for get_k_kpts: make_kpt ki>=kj (5,*)    135.63 sec, wall time      4.64 sec
    CPU time for get_k_kpts: make_kpt ki>=kj (6,*)    159.33 sec, wall time      5.45 sec
    CPU time for get_k_kpts: make_kpt ki>=kj (7,*)    191.41 sec, wall time      6.37 sec
Monkhorst pack size [2 2 2] ew_eta 1.2528073871489522 ew_cut 5.612295470572105
Ewald components = 6.40452191691014e-106, -0.707210608233433, 0.614458283656676
    CPU time for get_j pass 1     83.90 sec, wall time      2.94 sec
    CPU time for get_j pass 2      4.77 sec, wall time      2.05 sec
    CPU time for vj and vk 1152909.40 sec, wall time  37339.04 sec
Ewald components = 1.15473660899624e-35, -1203.36764844879, 949.599005991309
E1 = (-387.41645500166686-2.1377462858864992e-16j)  E_coul = (157.71543246109138-1.7254099402642323e-18j)
init E= -483.469664998052
cond(S) = [59465506.15837833 81490769.39502318 37008794.96545629 10568320.91183745
 37008795.20568668 10568320.46119924 37008795.35066076 10568320.59596848]
    CPU time for initialize scf 1180675.17 sec, wall time  38214.46 sec
HOMO = 0.152549959237  LUMO = 0.152549959248

WARN: HOMO 0.152549959237 == LUMO 0.152549959248

     k-point                  mo_energy
   0 ( 0.000  0.000  0.000)   [-5.31249382 -5.29143487 -3.36660114 -3.36341692 -3.36341692 -3.36295042
 -3.36295042 -3.36285072 -1.59582913 -0.97579406 -0.25712056 -0.25712056
 -0.25497758 -0.24660644 -0.24660644 -0.20625855 -0.20625855 -0.202214
 -0.19662804 -0.19662804 -0.15547392  0.06671324  0.11796161  0.11796161
  0.14982967  0.15254996] [  0.15254996   0.59699142   0.73425552   1.03387158   1.03387158
   1.08518808   1.08741165   1.08741165   1.17387626   1.22943553
   1.22943553   1.29165222   1.29165222   1.3052796    1.44300518
   1.4870274    1.50130368   1.50130368   1.65877534   1.65877534
   1.69439029   1.71483887   1.81288372   1.81288373   1.92152528
   1.92152538   1.93971864   2.11113932   2.11113932   2.1472274
   2.14722745   2.51168787   2.58639196   2.59650372   2.67399392
   2.67399392   2.7204676    2.72046761   2.86873419   2.96168024
   2.96168029   2.97373392   3.04320247   3.04320248   3.3221938
   3.38554353   3.38554354   3.41556844   3.54587735   3.54587735
   3.54638972   3.54638973   3.74747682   3.74747683   3.86771937
   3.86771951   3.99661347   3.99661348   4.02671117   4.2462435
   4.43845626   4.67086849   4.86249298   4.86249298   4.91760523
   4.91760524   5.06128839   5.06157807   5.10079541   5.10079541
   5.14151055   5.16750261   5.19409785   5.22614065   5.22614066
   5.24225837   5.30672137   5.30672137   5.32306826   5.32306826
   5.63433696   5.93432015   5.93461516   5.95888102   5.95888102
   5.99115993   6.08863065   6.10566129   6.10566129   6.14808271
   6.20644353   6.20644353   6.21696812   6.21696814   6.57387458
   7.45031706   7.73406618   7.73406618   7.78451115   7.78451116
   7.82821204   7.82821204   7.86788554   7.98028248   7.98028249
   8.09576506   9.74212216   9.74212217   9.75153552   9.93167575
   9.93167575   9.96169036  10.21170955  10.21170956  10.301587
  10.301587    10.44530723  10.77382436  10.77382443  10.85852924
  10.89851273  10.89851275  17.25329765  17.25331167  17.26428105
  17.26428105  17.26950634  17.27782956  17.30127666  17.31447678
  17.31447678  17.33136183  17.33951895  17.33951895  17.35707626
  17.35707626  17.45932038  17.45932057  17.45956013  17.45956013
  17.46005796  17.46005796  17.4603097   17.46055793  17.46110842
  17.46110842  17.46162465  17.46162465  17.46222254  17.46258822
  17.46258822  17.46279559  17.46279559  17.46292203  21.50605831
  21.99877064  74.76585291 100.79749772]
   1 ( 0.000  0.000  0.500)   [-5.29694627 -5.29694627 -3.36575497 -3.36575497 -3.36318154 -3.36318154
 -3.36318154 -3.36318154 -1.22054829 -1.22054829 -0.27536463 -0.27536463
 -0.25303663 -0.25303663 -0.25303663 -0.25303663 -0.20053942 -0.20053942
 -0.20053942 -0.20053942 -0.02632619 -0.02632619  0.13566658  0.13566658
  0.13566658  0.13566658] [ 0.36781951  0.36781951  0.89522696  0.89522696  1.04250052  1.04250052
  1.04250052  1.04250052  1.25002916  1.25002918  1.31674291  1.31674291
  1.31674291  1.31674291  1.50135494  1.50135494  1.50135494  1.50135494
  1.53917447  1.53917451  1.7728599   1.7728599   1.80180172  1.80180172
  1.80180173  1.80180174  1.94361034  1.94361045  2.53056966  2.53056966
  2.53056969  2.5305697   2.67634933  2.67634935  2.75214876  2.75214879
  2.75214885  2.7521489   2.88296311  2.88296314  2.90112083  2.9011209
  2.90112106  2.90112116  3.39039976  3.3903998   3.39912535  3.39912536
  3.39912538  3.39912539  3.60307272  3.60307272  3.60307274  3.60307274
  3.60489991  3.60489996  4.16561343  4.16561353  4.16561376  4.16561391
  4.75420932  4.75420936  4.99137336  4.99137341  4.99137354  4.99137362
  5.06143321  5.06143321  5.14617483  5.14617483  5.16956241  5.16956241
  5.16956242  5.16956242  5.22170109  5.22170109  5.3829339   5.38293395
  5.38293408  5.38293417  5.89738884  5.89738886  5.93446768  5.93446768
  6.03854586  6.03854586  6.03854587  6.03854587  6.07544936  6.07544936
  6.29583194  6.295832    6.29583213  6.29583222  6.8523105   6.85231051
  7.70019886  7.70019886  7.70019886  7.70019886  7.89043745  7.89043746
  7.89043747  7.89043748  7.89998831  7.89998832  9.56339104  9.56339104
  9.56339104  9.56339105  9.81689622  9.81689625 10.07149554 10.07149555
 10.07149555 10.07149556 10.44815194 10.44815198 11.22810474 11.22810483
 11.22810506 11.22810519 17.25330466 17.25330466 17.27396305 17.27396305
 17.28351913 17.28351913 17.28351913 17.28351913 17.32565595 17.32565595
 17.34979917 17.34979917 17.34979918 17.34979918 17.45932048 17.45932048
 17.45995548 17.45995548 17.46009599 17.46009599 17.46009599 17.46009599
 17.46148531 17.46148531 17.46148531 17.46148531 17.46278169 17.46278169
 17.46435567 17.46435567 17.46435567 17.46435568 20.94655083 20.94655084
 93.90546417 93.90546462]
   2 ( 0.000  0.500  0.000)   [-5.29135035 -5.29101771 -3.3655077  -3.36479813 -3.36444905 -3.36413961
 -3.36357609 -3.36338458 -0.96417454 -0.90731642 -0.25920916 -0.24301088
 -0.23340561 -0.22297631 -0.21700373 -0.21062783 -0.19906675 -0.19459734
 -0.19423298 -0.18673075 -0.09734674 -0.04854288  0.01406638  0.05364652
  0.09562966  0.1172039 ] [  0.61625203   0.70454313   0.76985058   0.80500912   0.89549526
   0.96860453   1.04091006   1.07364441   1.17282122   1.24922263
   1.28849331   1.33742124   1.50484975   1.51131448   1.5521353
   1.56176603   1.66900527   1.71514398   1.71623192   1.75667536
   1.80557721   1.89812082   1.91506414   1.93340801   2.01942946
   2.04509054   2.14472579   2.17980342   2.19456793   2.24577383
   2.27953962   2.37311946   2.39112603   2.61443009   2.64164698
   2.64992785   2.66074339   2.70505579   2.74999048   2.82245165
   2.85178356   2.85406569   2.9386395    3.02883487   3.1025513
   3.17605729   3.22390971   3.28875327   3.3582102    3.45050615
   3.52905171   3.57803596   3.64317917   3.68482857   3.71181608
   3.9710262    3.9797577    4.16912846   4.18628808   4.20519589
   4.51886755   4.55133313   4.69495398   4.93929007   4.97954756
   5.01456044   5.08001466   5.10724148   5.17126941   5.19274434
   5.20218041   5.21380232   5.23198312   5.23320934   5.2361247
   5.27157723   5.27387827   5.3273869    5.33702885   5.40382791
   5.91906967   5.99509881   6.01767797   6.03095185   6.05469101
   6.05474592   6.06899964   6.07265053   6.09071977   6.12473241
   6.13072101   6.17431113   6.28346504   6.34011251   7.3261726
   7.36648433   7.5778256    7.58536953   7.60660683   7.7293091
   7.7710085    7.82603609   7.91679357   7.9305394    7.9328099
   7.98985248   9.15715053   9.45368564   9.62835849   9.72122181
   9.74042577   9.82850389  10.01577959  10.03076688  10.22578492
  10.27170431  10.33461913  10.72489115  10.85406076  11.00971262
  11.13087065  11.21926551  17.25777949  17.27032548  17.270653
  17.27776786  17.2901922   17.29237752  17.30458651  17.30579023
  17.30872363  17.32617879  17.32786956  17.36963104  17.37170979
  17.38395069  17.45929905  17.45968738  17.45970491  17.45973574
  17.45979276  17.46004565  17.46013872  17.46021544  17.46022629
  17.46069675  17.46140507  17.46170846  17.46190635  17.46259813
  17.46383992  17.46427127  17.46529434  17.46689252  21.51282212
  22.23278508  99.10746403 100.55157684]
   3 ( 0.000  0.500  0.500)   [-5.29115147 -5.29115147 -3.36538523 -3.36538523 -3.36375917 -3.36375917
 -3.36367244 -3.36367244 -0.9285618  -0.9285618  -0.26180862 -0.26180862
 -0.23055931 -0.23055931 -0.21827309 -0.21827309 -0.19781567 -0.19781567
 -0.18645496 -0.18645496 -0.0931221  -0.0931221   0.08679056  0.08679056
  0.09035381  0.09035381] [ 0.67090289  0.67090289  0.75737984  0.75737984  0.95368152  0.95368152
  1.05577371  1.05577371  1.15121045  1.15121045  1.38970696  1.38970696
  1.43861585  1.43861585  1.57164685  1.57164687  1.59746674  1.59746674
  1.75509059  1.75509059  1.87934097  1.87934097  1.9167416   1.91674161
  2.11165128  2.11165132  2.14186934  2.14186935  2.22587515  2.22587524
  2.3838314   2.38383143  2.57083985  2.57083985  2.58525956  2.58525959
  2.66356542  2.66356542  2.6661192   2.6661192   2.77533682  2.77533686
  2.90187855  2.90187857  3.29678037  3.29678039  3.34331084  3.34331084
  3.47360514  3.47360515  3.63305486  3.63305487  3.71258059  3.71258063
  3.87138272  3.87138273  3.89255368  3.89255396  3.95051351  3.95051357
  4.66492065  4.66492065  4.73521442  4.7352146   4.83605453  4.83605457
  5.12632103  5.12632103  5.1681177   5.1681177   5.19609148  5.19609148
  5.20624572  5.20624572  5.28463401  5.28463401  5.30532445  5.30532445
  5.33965214  5.33965214  5.97509423  5.97509423  5.9762752   5.97627521
  6.05188897  6.05188897  6.076856    6.076856    6.15858003  6.15858006
  6.19443512  6.19443512  6.29656142  6.29656144  7.38422614  7.38422622
  7.58939806  7.58939806  7.62273455  7.62273456  7.87030743  7.87030743
  7.87378035  7.87378035  7.92249468  7.92249472  9.22002017  9.22002021
  9.54712751  9.54712752  9.65968141  9.65968144 10.13588338 10.13588338
 10.24847541 10.24847553 10.55185948 10.55185959 10.73427353 10.73427354
 10.77126334 10.7712636  17.26911067 17.26911067 17.27184674 17.27184674
 17.29094607 17.29094607 17.30076646 17.30076647 17.34500891 17.34500891
 17.35053999 17.35053999 17.38577109 17.38577109 17.45943149 17.45943149
 17.46006821 17.46006821 17.46010113 17.46010113 17.46038401 17.46038401
 17.46085647 17.46085647 17.46092661 17.46092661 17.46253743 17.46253743
 17.46296084 17.46296084 17.46585167 17.46585167 22.53799273 22.53799297
 99.09172879 99.09173319]
   4 ( 0.500 -0.000  0.000)   [-5.29135035 -5.29101771 -3.3655077  -3.36479813 -3.36444905 -3.36413961
 -3.36357609 -3.36338458 -0.96417454 -0.90731642 -0.25920916 -0.24301088
 -0.23340561 -0.22297631 -0.21700373 -0.21062783 -0.19906675 -0.19459734
 -0.19423298 -0.18673075 -0.09734674 -0.04854288  0.01406638  0.05364652
  0.09562966  0.1172039 ] [  0.61625203   0.70454313   0.76985058   0.80500912   0.89549526
   0.96860453   1.04091005   1.07364441   1.17282122   1.24922263
   1.28849331   1.33742124   1.50484975   1.51131448   1.55213529
   1.56176603   1.66900523   1.71514398   1.71623192   1.75667536
   1.80557721   1.89812076   1.91506415   1.93340801   2.01942944
   2.04509054   2.14472579   2.17980274   2.19456793   2.24577382
   2.27953963   2.37311944   2.39112603   2.61443008   2.64164698
   2.64992785   2.66074327   2.70505579   2.74999048   2.82245096
   2.85178355   2.85406569   2.9386395    3.02883487   3.10255131
   3.17605728   3.22390971   3.28875327   3.35821019   3.45050616
   3.52905171   3.57803596   3.64317916   3.68482858   3.71181583
   3.9710262    3.9797575    4.16912853   4.18628806   4.20519582
   4.51886754   4.55133316   4.69495398   4.93929007   4.97954756
   5.01456      5.08001464   5.10724148   5.17126941   5.19274434
   5.20218041   5.21380232   5.23198307   5.23320934   5.2361247
   5.27157723   5.27387827   5.3273869    5.33702884   5.40382733
   5.91906967   5.99509874   6.01767797   6.03095185   6.05469101
   6.05474592   6.06899964   6.07265053   6.09071977   6.12473241
   6.13072092   6.17431113   6.28346504   6.34011252   7.32617254
   7.36648433   7.5778256    7.58536954   7.60660675   7.72930912
   7.7710085    7.82603609   7.91679356   7.93053941   7.9328099
   7.98985246   9.15715052   9.45368564   9.62835849   9.72122181
   9.74042577   9.82850389  10.0157796   10.03076691  10.22578493
  10.27170417  10.33461913  10.72489114  10.85406073  11.00971228
  11.13087079  11.21926536  17.25777949  17.27032548  17.270653
  17.27776786  17.2901922   17.29237752  17.30458651  17.30579023
  17.30872363  17.32617879  17.32786956  17.36963103  17.37170978
  17.38395069  17.45929905  17.45968738  17.45970491  17.45973574
  17.45979276  17.46004565  17.46013872  17.46021544  17.46022629
  17.46069675  17.46140507  17.46170846  17.46190635  17.46259813
  17.46383992  17.46427127  17.46529434  17.46689252  21.51282215
  22.23278507  99.10745172 100.55157866]
   5 ( 0.500 -0.000  0.500)   [-5.29115147 -5.29115147 -3.36538523 -3.36538523 -3.36375917 -3.36375917
 -3.36367244 -3.36367244 -0.9285618  -0.9285618  -0.26180862 -0.26180862
 -0.23055931 -0.23055931 -0.21827309 -0.21827309 -0.19781567 -0.19781567
 -0.18645496 -0.18645496 -0.0931221  -0.0931221   0.08679056  0.08679056
  0.09035381  0.09035381] [ 0.67090289  0.67090289  0.75737984  0.75737984  0.95368152  0.95368152
  1.05577371  1.05577371  1.15121045  1.15121046  1.38970695  1.38970696
  1.43861585  1.43861585  1.57164684  1.57164687  1.59746674  1.59746674
  1.75509059  1.75509059  1.87934098  1.87934098  1.91674159  1.91674162
  2.11165127  2.11165133  2.14186937  2.14186938  2.22587513  2.22587525
  2.38383139  2.38383143  2.57083985  2.57083986  2.58525955  2.5852596
  2.66356543  2.66356543  2.6661192   2.6661192   2.77533681  2.77533686
  2.90187855  2.90187857  3.29678037  3.29678039  3.34331085  3.34331085
  3.47360514  3.47360515  3.63305488  3.63305489  3.71258058  3.71258063
  3.87138274  3.87138275  3.89255363  3.89255398  3.9505135   3.95051358
  4.66492066  4.66492067  4.73521441  4.7352146   4.83605453  4.83605458
  5.12632103  5.12632103  5.1681177   5.1681177   5.19609148  5.19609148
  5.20624572  5.20624572  5.28463401  5.28463401  5.30532445  5.30532446
  5.33965214  5.33965214  5.97509423  5.97509423  5.9762752   5.9762752
  6.05188897  6.05188897  6.076856    6.076856    6.15858003  6.15858006
  6.19443513  6.19443513  6.29656141  6.29656144  7.38422615  7.38422621
  7.58939806  7.58939806  7.62273455  7.62273456  7.87030742  7.87030743
  7.87378035  7.87378035  7.92249468  7.92249471  9.22002017  9.2200202
  9.54712752  9.54712752  9.65968141  9.65968144 10.13588338 10.13588339
 10.24847542 10.24847551 10.55185948 10.55185959 10.73427355 10.73427357
 10.77126336 10.77126356 17.26911067 17.26911067 17.27184674 17.27184674
 17.29094607 17.29094607 17.30076647 17.30076647 17.34500891 17.34500891
 17.35053999 17.35053999 17.38577109 17.38577109 17.45943149 17.45943149
 17.46006821 17.46006821 17.46010113 17.46010113 17.46038401 17.46038401
 17.46085647 17.46085647 17.46092661 17.46092661 17.46253743 17.46253743
 17.46296084 17.46296084 17.46585167 17.46585167 22.53799275 22.53799295
 99.09172928 99.09173264]
   6 ( 0.500  0.500  0.000)   [-5.29135035 -5.29101771 -3.3655077  -3.36479813 -3.36444905 -3.36413961
 -3.36357609 -3.36338458 -0.96417454 -0.90731642 -0.25920916 -0.24301088
 -0.23340561 -0.22297631 -0.21700373 -0.21062783 -0.19906675 -0.19459734
 -0.19423298 -0.18673075 -0.09734674 -0.04854288  0.01406638  0.05364652
  0.09562966  0.1172039 ] [  0.61625203   0.70454313   0.76985058   0.80500912   0.89549526
   0.96860453   1.04091006   1.07364441   1.17282122   1.24922263
   1.28849331   1.33742125   1.50484975   1.51131448   1.55213529
   1.56176603   1.66900535   1.71514398   1.71623192   1.75667536
   1.80557721   1.89812092   1.91506414   1.93340801   2.01942944
   2.04509054   2.1447258    2.17980467   2.19456793   2.24577383
   2.27953962   2.37311944   2.39112603   2.61443008   2.64164698
   2.64992785   2.6607436    2.70505579   2.74999048   2.8224529
   2.85178355   2.85406569   2.9386395    3.02883487   3.1025513
   3.17605728   3.22390971   3.28875327   3.3582102    3.45050614
   3.52905171   3.57803596   3.64317917   3.68482857   3.71181653
   3.97102621   3.97975804   4.16912847   4.18628807   4.20519586
   4.51886755   4.55133313   4.69495398   4.93929007   4.97954756
   5.01456124   5.0800147    5.10724148   5.17126941   5.19274434
   5.20218041   5.21380232   5.23198321   5.23320934   5.2361247
   5.27157723   5.27387827   5.3273869    5.33702885   5.40382896
   5.91906967   5.99509893   6.01767797   6.03095185   6.05469101
   6.05474593   6.06899964   6.07265053   6.09071977   6.12473241
   6.13072119   6.17431113   6.28346504   6.34011251   7.32617258
   7.36648433   7.5778256    7.58536953   7.60660698   7.7293091
   7.77100851   7.82603609   7.91679357   7.9305394    7.9328099
   7.98985247   9.15715053   9.45368566   9.62835849   9.72122181
   9.74042577   9.82850389  10.0157796   10.03076688  10.22578492
  10.27170456  10.33461913  10.72489115  10.85406075  11.00971324
  11.13087065  11.21926548  17.25777949  17.27032548  17.270653
  17.27776786  17.2901922   17.29237752  17.30458651  17.30579023
  17.30872364  17.32617879  17.32786956  17.36963107  17.37170979
  17.38395069  17.45929905  17.45968738  17.45970491  17.45973574
  17.45979276  17.46004565  17.46013872  17.46021544  17.46022629
  17.46069675  17.46140507  17.46170846  17.46190635  17.46259813
  17.46383992  17.46427127  17.46529434  17.46689252  21.51282212
  22.23278508  99.10746357 100.55157671]
   7 ( 0.500  0.500  0.500)   [-5.29115147 -5.29115147 -3.36538523 -3.36538523 -3.36375917 -3.36375917
 -3.36367244 -3.36367244 -0.9285618  -0.9285618  -0.26180862 -0.26180862
 -0.23055931 -0.23055931 -0.21827309 -0.21827309 -0.19781567 -0.19781567
 -0.18645496 -0.18645496 -0.0931221  -0.0931221   0.08679056  0.08679056
  0.09035381  0.09035381] [ 0.67090289  0.67090289  0.75737984  0.75737984  0.95368152  0.95368152
  1.05577371  1.05577371  1.15121045  1.15121046  1.38970696  1.38970696
  1.43861585  1.43861585  1.57164685  1.57164686  1.59746674  1.59746674
  1.75509059  1.75509059  1.87934097  1.87934098  1.9167416   1.91674161
  2.11165128  2.11165131  2.14186935  2.14186939  2.22587514  2.22587521
  2.38383139  2.38383142  2.57083985  2.57083986  2.58525956  2.58525959
  2.66356542  2.66356543  2.6661192   2.6661192   2.77533682  2.77533685
  2.90187855  2.90187856  3.29678037  3.29678038  3.34331084  3.34331085
  3.47360514  3.47360515  3.63305488  3.6330549   3.71258058  3.71258062
  3.87138273  3.87138276  3.89255365  3.89255391  3.9505135   3.95051355
  4.66492065  4.66492067  4.73521441  4.73521457  4.83605453  4.83605457
  5.12632103  5.12632103  5.1681177   5.1681177   5.19609148  5.19609148
  5.20624572  5.20624572  5.28463401  5.28463401  5.30532445  5.30532446
  5.33965214  5.33965214  5.97509423  5.97509423  5.9762752   5.9762752
  6.05188897  6.05188897  6.076856    6.076856    6.15858003  6.15858006
  6.19443512  6.19443513  6.29656141  6.29656144  7.38422614  7.38422621
  7.58939806  7.58939806  7.62273455  7.62273456  7.87030743  7.87030743
  7.87378035  7.87378035  7.92249468  7.92249471  9.22002016  9.2200202
  9.54712752  9.54712753  9.65968141  9.65968144 10.13588338 10.13588339
 10.24847541 10.24847551 10.55185948 10.55185958 10.73427355 10.73427358
 10.77126334 10.77126356 17.26911067 17.26911067 17.27184674 17.27184674
 17.29094607 17.29094607 17.30076647 17.30076647 17.34500891 17.34500891
 17.35053999 17.35053999 17.38577109 17.38577109 17.45943149 17.45943149
 17.46006821 17.46006821 17.46010113 17.46010113 17.46038401 17.46038401
 17.46085647 17.46085647 17.46092661 17.46092661 17.46253743 17.46253743
 17.46296084 17.46296084 17.46585167 17.46585167 22.53799274 22.53799295
 99.09172904 99.09173276]
    CPU time for get_k_kpts: make_kpt ki>=kj (0,*)     19.25 sec, wall time      0.63 sec
    CPU time for get_k_kpts: make_kpt ki>=kj (1,*)     48.47 sec, wall time      1.58 sec
    CPU time for get_k_kpts: make_kpt ki>=kj (2,*)     76.76 sec, wall time      2.51 sec
    CPU time for get_k_kpts: make_kpt ki>=kj (3,*)     95.42 sec, wall time      3.17 sec
    CPU time for get_k_kpts: make_kpt ki>=kj (4,*)    127.12 sec, wall time      4.20 sec
    CPU time for get_k_kpts: make_kpt ki>=kj (5,*)    145.24 sec, wall time      4.93 sec
    CPU time for get_k_kpts: make_kpt ki>=kj (6,*)    167.06 sec, wall time      5.63 sec
    CPU time for get_k_kpts: make_kpt ki>=kj (7,*)    192.66 sec, wall time      6.41 sec
Monkhorst pack size [2 2 2] ew_eta 1.2528073871489522 ew_cut 5.612295470572105
Ewald components = 6.40452191691014e-106, -0.707210608233433, 0.614458283656676
    CPU time for get_j pass 1     88.31 sec, wall time      2.83 sec
    CPU time for get_j pass 2      4.62 sec, wall time      1.91 sec
    CPU time for vj and vk    969.80 sec, wall time     33.96 sec
Ewald components = 1.15473660899624e-35, -1203.36764844879, 949.599005991309
E1 = (-387.9372226238746-2.665718746454933e-16j)  E_coul = (159.58138256053917+3.792068447563209e-17j)
cycle= 1 E= -482.124482520812  delta_E= 1.35  |g|= 2.02  |ddm|=  219
    CPU time for cycle= 1    973.35 sec, wall time     40.34 sec
diis-norm(errvec)=4.75633
diis-c [-22.6226905+0.j   1.       +0.j]
HOMO = 0.357613750573  LUMO = 0.358015550878

WARN: HOMO 0.357613750573 == LUMO 0.358015550878

     k-point                  mo_energy
   0 ( 0.000  0.000  0.000)   [-5.33183359 -5.33182229 -3.41361264 -3.41355938 -3.41346753 -3.41345417
 -3.41307092 -3.41297971 -0.68433762 -0.65398105 -0.27815667 -0.27563439
 -0.27337075 -0.27018135 -0.26746632 -0.25623412 -0.25541159 -0.250259
 -0.24873843 -0.24084446 -0.03542252  0.13624534  0.15743534  0.17021244
  0.2035342   0.35761375] [  0.35801555   0.7322718    0.87779748   1.03040549   1.0311594
   1.08802799   1.10097185   1.10259128   1.14763286   1.22528204
   1.22578795   1.26679264   1.26746531   1.28826814   1.43594802
   1.49262114   1.54526302   1.54712239   1.70359835   1.70602004
   1.73335454   1.80169147   1.84105694   1.84118236   1.92390676
   1.92453603   1.92508804   2.15928717   2.15930623   2.17852658
   2.17945022   2.53281572   2.6630411    2.66854419   2.75393589
   2.75409088   2.80509882   2.80518251   2.9608038    3.06535953
   3.06662946   3.09992381   3.1007812    3.11010925   3.36754994
   3.37814841   3.3785118    3.44949259   3.5503106    3.550462
   3.55681746   3.55731095   3.75977967   3.75997555   3.84790226
   3.84826141   4.02224834   4.02631212   4.02664222   4.31892956
   4.6662631    4.82443414   5.020161     5.02037864   5.0299081
   5.03065068   5.1017679    5.10239997   5.11990017   5.12096088
   5.12187193   5.13359724   5.16700747   5.19595263   5.19600432
   5.25247535   5.29210495   5.2929316    5.2987974    5.29895975
   5.70870446   6.16061786   6.16076752   6.18257785   6.1861954
   6.20521963   6.31295351   6.33015353   6.33082919   6.34986017
   6.42678015   6.43052152   6.43529602   6.43559262   6.69887378
   7.58889426   8.04195235   8.04229024   8.09964743   8.10061513
   8.13186504   8.13428334   8.1590228    8.24456156   8.26464345
   8.26746222   9.70241325   9.70270121   9.73324105   9.89473343
   9.8954939    9.94349025  10.17362914  10.17404733  10.27610046
  10.27643477  10.41472036  10.73197484  10.73209227  10.81232162
  10.86000067  10.86032143  17.2014864   17.20149314  17.21257183
  17.21312085  17.22320397  17.22807775  17.24985166  17.26292275
  17.26340805  17.28121725  17.28809378  17.28865961  17.30546773
  17.30605617  17.40917457  17.40917803  17.40991326  17.41005741
  17.41021881  17.41052524  17.41059531  17.41069507  17.41155647
  17.41187804  17.4119084   17.41213187  17.41317792  17.41339267
  17.41355737  17.4137259   17.41372605  17.41406963  21.92850655
  22.41658923  74.71781943 100.74415196]
   1 ( 0.000  0.000  0.500)   [-5.33182771 -5.33182771 -3.41358635 -3.41358635 -3.41345293 -3.41345293
 -3.41303806 -3.41303806 -0.6687506  -0.6687506  -0.2764142  -0.2764142
 -0.27028923 -0.27028923 -0.267726   -0.267726   -0.25269036 -0.25269036
 -0.2510811  -0.2510811   0.06649362  0.06649362  0.15333049  0.15333049
  0.2032238   0.2032238 ] [ 0.63155116  0.63155116  0.93220227  0.93220227  1.04229662  1.04229662
  1.04372348  1.04372348  1.23656075  1.23656078  1.32150885  1.32150885
  1.32313016  1.32313016  1.49829915  1.49829915  1.4990534   1.4990534
  1.53680471  1.53680476  1.81489404  1.81489406  1.87438377  1.87438378
  1.87578034  1.87578035  1.95330529  1.95330538  2.5971122   2.59711222
  2.59762783  2.59762784  2.76695179  2.76695183  2.81144801  2.81144806
  2.81150965  2.81150972  2.93620908  2.93620914  2.93629157  2.93629161
  3.00494433  3.00494436  3.41714192  3.41714193  3.41715273  3.41715273
  3.44876601  3.44876606  3.59131412  3.59131417  3.61907862  3.61907863
  3.61928867  3.61928868  4.18630741  4.18630753  4.18636792  4.1863681
  4.97496537  4.9749654   5.02027104  5.02027104  5.0846895   5.08468953
  5.0851936   5.08519362  5.11548901  5.11548901  5.16294146  5.16294146
  5.16307658  5.16307658  5.20702679  5.20702679  5.43948705  5.43948717
  5.44035193  5.44035201  6.03381601  6.03381603  6.16072034  6.16072034
  6.26327732  6.26327733  6.26652676  6.26652677  6.29484534  6.29484534
  6.5009914   6.50099147  6.50179975  6.5017998   6.91732637  6.91732638
  8.00992137  8.00992137  8.01173688  8.01173688  8.18145811  8.18145811
  8.18241452  8.18241452  8.18651297  8.18651298  9.52790911  9.52790912
  9.52833731  9.52833731  9.78151432  9.78151434 10.04655828 10.04655828
 10.04689882 10.04689882 10.41414592 10.41414596 11.18520034 11.18520048
 11.18527978 11.18527987 17.20149243 17.20149243 17.2264115  17.2264115
 17.2319156  17.2319156  17.23232376 17.23232376 17.27569626 17.27569626
 17.29848543 17.29848543 17.29884584 17.29884584 17.40921583 17.40921583
 17.40992393 17.40992393 17.41061353 17.41061353 17.41081529 17.41081529
 17.41187816 17.41187817 17.4119055  17.41190551 17.41370107 17.41370107
 17.41513585 17.41513585 17.41541501 17.41541501 21.36387606 21.36387607
 93.85236264 93.85236309]
   2 ( 0.000  0.500  0.000)   [-5.3318261  -5.33182203 -3.4136594  -3.41360169 -3.41347216 -3.41344777
 -3.41306505 -3.41304477 -0.65604659 -0.64647525 -0.27283704 -0.2671333
 -0.26221361 -0.26174436 -0.25741061 -0.25278211 -0.24964285 -0.24828091
 -0.2427233  -0.24015283 -0.02242477  0.02224193  0.05887586  0.09569591
  0.12903983  0.16230259] [  0.75967168   0.76924718   0.79501133   0.90005349   0.98287319
   1.02236971   1.0366559    1.13450048   1.17525896   1.28189529
   1.29851348   1.36212887   1.50509756   1.52848063   1.56901558
   1.57290708   1.69844789   1.72354821   1.74472256   1.77885314
   1.7798287    1.91069565   1.91157919   1.96852405   2.00597482
   2.04455888   2.21459108   2.22938676   2.28016574   2.29179543
   2.29612432   2.37495668   2.44760645   2.67426176   2.71027728
   2.73734161   2.75396643   2.79112763   2.84686875   2.90539002
   2.9212416    2.92208597   2.94403584   3.0612959    3.12624323
   3.21706375   3.2221276    3.34350314   3.35422154   3.46899366
   3.53413699   3.62043542   3.65317766   3.68879995   3.7341455
   3.97509435   4.00421777   4.1797187    4.19354844   4.25456301
   4.70974575   4.75053707   4.90490536   5.03401703   5.05100815
   5.06871779   5.09131346   5.1553301    5.17393859   5.18266237
   5.19280042   5.19320966   5.20402644   5.20824927   5.21036656
   5.25756822   5.25778429   5.34101388   5.42965438   5.43324221
   6.11351348   6.21441332   6.23401838   6.25167914   6.27150354
   6.28075842   6.28623045   6.2957093    6.31335584   6.34005796
   6.35722989   6.39911729   6.48273651   6.54512295   7.38950402
   7.66544395   7.68576595   7.88935699   7.90780643   8.02262355
   8.07064378   8.09985366   8.17685913   8.18821393   8.22149896
   8.27732223   9.12081611   9.42518988   9.60414391   9.67548284
   9.70232348   9.79135851   9.98589686   9.99763619  10.19656506
  10.23730516  10.31043384  10.68289705  10.81421914  10.97212105
  11.09082953  11.18181583  17.20586009  17.21936534  17.22092399
  17.22897952  17.24001066  17.24151683  17.25332958  17.25462457
  17.25719439  17.27503642  17.27617871  17.31850033  17.32107333
  17.3334953   17.40936148  17.41012437  17.41018823  17.41025958
  17.4102921   17.41032568  17.41055427  17.41075167  17.4108622
  17.41108661  17.4115281   17.41195568  17.41211599  17.41357436
  17.41474611  17.41503742  17.41594866  17.41799859  21.93012854
  22.65896953  99.05553336 100.49950866]
   3 ( 0.000  0.500  0.500)   [-5.33182414 -5.33182414 -3.41363584 -3.41363583 -3.41346129 -3.41346128
 -3.41305388 -3.41305388 -0.65058359 -0.65058359 -0.27281676 -0.27281676
 -0.26001348 -0.26001348 -0.25644899 -0.25644899 -0.24941871 -0.2494187
 -0.2430761  -0.2430761  -0.02185361 -0.02185361  0.12793635  0.12793635
  0.13083411  0.13083411] [ 0.72411073  0.72411073  0.90220518  0.90220518  0.96429261  0.96429261
  1.08548495  1.08548495  1.17158471  1.17158471  1.43022084  1.43022084
  1.4491014   1.4491014   1.58429294  1.58429296  1.60841992  1.60841992
  1.77577862  1.77577862  1.91326751  1.91326751  1.91477446  1.91477447
  2.15103756  2.15103757  2.15776653  2.15776657  2.25426352  2.25426361
  2.36931293  2.36931297  2.64325592  2.64325593  2.65140068  2.65140072
  2.72656147  2.72656147  2.78059994  2.78059995  2.84963961  2.84963964
  2.94355554  2.94355555  3.32317182  3.32317186  3.35893572  3.35893572
  3.53859904  3.53859907  3.63974041  3.63974042  3.70531772  3.70531777
  3.88558946  3.88558947  3.93017567  3.93017575  3.96551377  3.96551403
  4.85560398  4.85560398  4.94019099  4.94019115  5.00181097  5.00181097
  5.11223605  5.11223605  5.16133523  5.16133523  5.16774654  5.16774655
  5.19155493  5.19155495  5.25842029  5.25842031  5.27800414  5.27800414
  5.34618108  5.34618109  6.17870682  6.17870683  6.19750379  6.19750379
  6.26866518  6.26866518  6.297794    6.297794    6.37919832  6.37919835
  6.41145111  6.41145111  6.50237557  6.5023756   7.43604065  7.43604074
  7.9002092   7.9002092   7.92696923  7.92696924  8.15773616  8.15773617
  8.16298374  8.16298375  8.18677372  8.18677375  9.18710384  9.18710388
  9.52012467  9.52012467  9.63620478  9.63620481 10.11229346 10.11229346
 10.21466938 10.2146695  10.51261703 10.51261714 10.69012584 10.69012585
 10.73287706 10.73287731 17.2174532  17.2174532  17.22219791 17.22219792
 17.24005953 17.24005954 17.2494376  17.2494376  17.29384005 17.29384005
 17.29913681 17.29913681 17.33552529 17.33552529 17.40960417 17.40960417
 17.41025535 17.41025535 17.41049656 17.41049656 17.41093366 17.41093366
 17.41111026 17.41111026 17.41159478 17.41159478 17.41303132 17.41303132
 17.41384305 17.41384305 17.41680164 17.41680164 22.96545752 22.96545776
 99.03741963 99.03742404]
   4 ( 0.500 -0.000  0.000)   [-5.33182486 -5.3318205  -3.41360051 -3.41356615 -3.41351074 -3.4135078
 -3.41306466 -3.41302148 -0.65522022 -0.64627532 -0.27149318 -0.27046301
 -0.26200945 -0.26014341 -0.25869488 -0.25594676 -0.25219315 -0.24893155
 -0.23758786 -0.2366291  -0.01209059  0.03110079  0.05913867  0.08342023
  0.12952936  0.14468413] [  0.76195544   0.77196603   0.79537044   0.90480407   0.98300258
   1.02570534   1.03665275   1.13082102   1.17548353   1.28148772
   1.29919187   1.35960488   1.50564      1.52783645   1.56878985
   1.57215835   1.69803238   1.72293951   1.7440623    1.77870982
   1.77951516   1.91031517   1.91151381   1.96886087   2.00651953
   2.04500267   2.21513523   2.22941468   2.27982265   2.29218909
   2.2968169    2.37583648   2.44808264   2.67418547   2.7105376
   2.73824285   2.75432854   2.790868     2.84678581   2.90628134
   2.92099905   2.92299109   2.94385393   3.06105404   3.12586908
   3.21634735   3.22131418   3.34291472   3.35466972   3.46827765
   3.53366926   3.61981713   3.65337955   3.6892223    3.73386159
   3.97475314   4.00481247   4.18021567   4.19293313   4.25476029
   4.70960706   4.75032957   4.90543695   5.03448857   5.05044102
   5.06856164   5.09083233   5.1554543    5.17425889   5.18262644
   5.19276003   5.19295893   5.20398801   5.20832267   5.21011179
   5.25736541   5.25825495   5.34042075   5.42924829   5.43348581
   6.11064145   6.21851006   6.23648826   6.24952081   6.27158775
   6.2804664    6.28750822   6.29268122   6.31758269   6.33948071
   6.35744471   6.39852949   6.48318157   6.54383601   7.39001801
   7.66532572   7.68790322   7.88775473   7.90880679   8.02076012
   8.07234589   8.10106545   8.17808331   8.18661172   8.2219578
   8.27477512   9.12093855   9.42468875   9.6036972    9.67502686
   9.70205138   9.79077654   9.98688514   9.99741018  10.19501394
  10.23691189  10.3110213   10.68257508  10.81355038  10.9729639
  11.09134279  11.18281194  17.20658291  17.21909368  17.22153572
  17.22944125  17.2398094   17.24093038  17.25300478  17.25462401
  17.25684841  17.27492576  17.27674254  17.31819036  17.32114822
  17.3330875   17.40957287  17.4096002   17.40993772  17.41010038
  17.41012681  17.41053505  17.41055503  17.41073914  17.41126177
  17.41151313  17.41202904  17.4122335   17.41291033  17.41363064
  17.4143374   17.41467181  17.41541591  17.41762395  21.93021686
  22.65905706  99.05568785 100.49953245]
   5 ( 0.500 -0.000  0.500)   [-5.33182274 -5.33182274 -3.41359185 -3.4135918  -3.41350537 -3.4135053
 -3.41304462 -3.41304461 -0.65008585 -0.65008585 -0.27166976 -0.27166976
 -0.26420351 -0.2642035  -0.25595069 -0.25595066 -0.25162201 -0.25162198
 -0.23777107 -0.23777107 -0.01468243 -0.01468243  0.11289969  0.11289969
  0.13415523  0.13415523] [ 0.72520895  0.72520895  0.90626678  0.90626678  0.96489664  0.96489664
  1.08345411  1.08345411  1.17279863  1.17279864  1.43017811  1.43017811
  1.44757284  1.44757284  1.58343138  1.58343142  1.60802097  1.60802097
  1.77577836  1.77577836  1.91290832  1.91290833  1.91527405  1.9152741
  2.15085196  2.15085198  2.15800706  2.15800713  2.25460046  2.25460057
  2.36914922  2.36914929  2.64337129  2.64337129  2.65134958  2.65134963
  2.72714084  2.72714084  2.78094454  2.78094455  2.85048848  2.85048852
  2.94381218  2.9438122   3.32320991  3.32320995  3.35856737  3.35856737
  3.53803452  3.53803455  3.64031595  3.64031596  3.70505254  3.7050526
  3.88498131  3.88498132  3.92970146  3.92970154  3.96587839  3.96587875
  4.85620826  4.85620827  4.93955873  4.93955889  5.00114233  5.00114234
  5.11253587  5.11253587  5.16101371  5.16101371  5.16756183  5.16756183
  5.19188514  5.19188516  5.25841623  5.25841624  5.27804483  5.27804484
  5.34585215  5.34585216  6.17711794  6.17711794  6.20115306  6.20115306
  6.27012986  6.27012987  6.29817624  6.29817625  6.37592962  6.37592965
  6.41114926  6.41114926  6.50264326  6.50264329  7.43607406  7.43607413
  7.90204561  7.90204562  7.9256324   7.9256324   8.15678647  8.15678651
  8.16388524  8.1638853   8.18670547  8.18670549  9.18741896  9.187419
  9.51995575  9.51995575  9.63612281  9.63612284 10.11271942 10.11271942
 10.21433759 10.21433769 10.5134427  10.51344282 10.68995507 10.68995509
 10.73151117 10.73151137 17.21789802 17.21789802 17.22263517 17.22263517
 17.23975867 17.23975868 17.24896488 17.24896489 17.29380651 17.29380651
 17.29917456 17.29917456 17.33528364 17.33528364 17.40964413 17.40964413
 17.4102224  17.41022243 17.41044603 17.41044604 17.41076227 17.41076231
 17.41148108 17.41148108 17.41179951 17.41179953 17.41324776 17.41324776
 17.41379898 17.41379898 17.41637868 17.41637868 22.96553978 22.96553997
 99.03749394 99.0374973 ]
   6 ( 0.500  0.500  0.000)   [-5.33182503 -5.33182071 -3.4135725  -3.41357106 -3.41354437 -3.41350741
 -3.41305743 -3.41302131 -0.65533669 -0.64630343 -0.27169548 -0.27005297
 -0.26207815 -0.26036671 -0.25797631 -0.25618781 -0.25178874 -0.24883299
 -0.23815462 -0.23708015 -0.01367426  0.0296582   0.05910168  0.08533446
  0.12947085  0.14728617] [  0.76163885   0.77158777   0.79531634   0.90413797   0.98298322
   1.02522895   1.03665477   1.13134677   1.17545244   1.28154423
   1.29909674   1.35996244   1.50556362   1.52792612   1.56882146
   1.57226435   1.69808913   1.72302667   1.74415426   1.77866673
   1.77962387   1.9103686    1.91152293   1.96881453   2.00644176
   2.04493926   2.21505875   2.22941165   2.27987169   2.29212665
   2.29672649   2.37571338   2.44801575   2.67419626   2.7105002
   2.73811764   2.75427921   2.79090432   2.84679633   2.90615581
   2.92103343   2.92286666   2.94387729   3.06108779   3.12592177
   3.21644253   3.22143455   3.34299724   3.35460702   3.46837839
   3.53373407   3.61990481   3.65335071   3.68916313   3.7339028
   3.97480123   4.00472959   4.18014552   4.19302087   4.25473158
   4.70962657   4.75035873   4.9053619    5.03442229   5.05052082
   5.0685826    5.09090144   5.15543525   5.17421292   5.18263348
   5.19276532   5.19299227   5.20399599   5.20831294   5.2101478
   5.2573938    5.25818893   5.34050428   5.4292932    5.43346625
   6.11104293   6.2179177    6.23615236   6.24984848   6.27151913
   6.28048812   6.28735665   6.29312244   6.31694524   6.33960024
   6.35742222   6.39862311   6.48312215   6.54401477   7.38994575
   7.66533821   7.68760523   7.88795591   7.90869082   8.02102881
   8.07210173   8.10088696   8.17791776   8.18682648   8.22190673
   8.27513125   9.12092127   9.42475934   9.60376027   9.67508994
   9.70209084   9.7908581    9.98674645   9.99744148  10.19523175
  10.23696778  10.31093932  10.68262051  10.81364445  10.97284613
  11.09127026  11.18267201  17.20648084  17.21911417  17.22146731
  17.22937579  17.23983847  17.24101084  17.25305113  17.25461611
  17.25690829  17.27493896  17.27666283  17.31821878  17.32115252
  17.3331463   17.40958069  17.40970296  17.41002672  17.41006236
  17.41012919  17.41047374  17.4105798   17.41079311  17.41116371
  17.41136125  17.41199759  17.41218567  17.41279832  17.41355614
  17.41444653  17.41472191  17.41551026  17.41769309  21.9302044
  22.65904474  99.05567621 100.49952741]
   7 ( 0.500  0.500  0.500)   [-5.33182294 -5.33182294 -3.41358041 -3.41358032 -3.41352229 -3.41352218
 -3.41304048 -3.41304046 -0.65015595 -0.65015595 -0.27185127 -0.27185127
 -0.26366404 -0.26366404 -0.25600532 -0.2560053  -0.25140527 -0.25140524
 -0.23837237 -0.23837237 -0.01576233 -0.01576233  0.11479806  0.11479806
  0.13397578  0.13397578] [ 0.72505467  0.72505467  0.90569584  0.90569584  0.96481063  0.96481063
  1.08374354  1.08374354  1.1726281   1.1726281   1.43018189  1.43018189
  1.44779008  1.44779008  1.58355231  1.58355233  1.60807759  1.60807759
  1.77577812  1.77577812  1.91291618  1.91291619  1.91524572  1.91524574
  2.15087552  2.15087555  2.15797589  2.15797592  2.25455368  2.25455374
  2.36917189  2.36917194  2.64334516  2.64334517  2.65136661  2.65136665
  2.72705865  2.72705865  2.78089848  2.78089848  2.85036781  2.85036783
  2.9437756   2.94377561  3.32320348  3.32320351  3.35862032  3.35862032
  3.53811378  3.53811381  3.64023454  3.64023457  3.70509039  3.70509043
  3.8850668   3.88506683  3.92976883  3.9297689   3.96582665  3.96582689
  4.85612258  4.85612259  4.93964814  4.93964828  5.00123662  5.00123663
  5.11249337  5.11249338  5.16105799  5.16105799  5.16758845  5.16758846
  5.19183959  5.1918396   5.25841664  5.25841665  5.27803928  5.27803929
  5.3458985   5.3458985   6.17734283  6.17734284  6.20063717  6.20063717
  6.26990232  6.26990233  6.2981437   6.29814371  6.37637429  6.37637431
  6.4112021   6.41120211  6.50261147  6.5026115   7.43606935  7.43606943
  7.90176635  7.90176636  7.92584238  7.92584239  8.15684833  8.15684838
  8.1638443   8.16384436  8.18669983  8.18669986  9.1873745   9.18737453
  9.51997955  9.51997956  9.63613436  9.63613439 10.11265936 10.11265936
 10.21438442 10.21438452 10.51332651 10.51332661 10.68997731 10.68997735
 10.73170527 10.73170548 17.21783279 17.21783279 17.2225761  17.2225761
 17.23979905 17.23979905 17.24903375 17.24903375 17.29381045 17.29381045
 17.29916876 17.29916876 17.3353187  17.33531871 17.40969083 17.40969083
 17.41021362 17.41021364 17.41050617 17.41050618 17.41069019 17.41069023
 17.41143176 17.41143177 17.41177319 17.41177321 17.41317566 17.41317566
 17.41382926 17.41382926 17.41645465 17.41645465 22.96552818 22.96552839
 99.0374833  99.03748703]
    CPU time for get_k_kpts: make_kpt ki>=kj (0,*)     19.75 sec, wall time      0.66 sec
    CPU time for get_k_kpts: make_kpt ki>=kj (1,*)     45.98 sec, wall time      1.51 sec
    CPU time for get_k_kpts: make_kpt ki>=kj (2,*)     74.87 sec, wall time      2.52 sec
    CPU time for get_k_kpts: make_kpt ki>=kj (3,*)     85.10 sec, wall time      2.91 sec
    CPU time for get_k_kpts: make_kpt ki>=kj (4,*)    119.16 sec, wall time      3.96 sec
    CPU time for get_k_kpts: make_kpt ki>=kj (5,*)    132.67 sec, wall time      4.44 sec
    CPU time for get_k_kpts: make_kpt ki>=kj (6,*)    161.11 sec, wall time      5.38 sec
    CPU time for get_k_kpts: make_kpt ki>=kj (7,*)    204.64 sec, wall time      6.82 sec
Monkhorst pack size [2 2 2] ew_eta 1.2528073871489522 ew_cut 5.612295470572105
Ewald components = 6.40452191691014e-106, -0.707210608233433, 0.614458283656676
    CPU time for get_j pass 1     90.89 sec, wall time      2.88 sec
    CPU time for get_j pass 2      4.57 sec, wall time      1.93 sec
    CPU time for vj and vk    944.95 sec, wall time     33.23 sec
Ewald components = 1.15473660899624e-35, -1203.36764844879, 949.599005991309
E1 = (-388.8354690452089-3.266599932891844e-16j)  E_coul = (160.3368378979944+1.148700866399742e-16j)
cycle= 2 E= -482.267273604691  delta_E= -0.143  |g|=  1.2  |ddm|=  253
    CPU time for cycle= 2    948.30 sec, wall time     34.89 sec
diis-norm(errvec)=3.4859
diis-c [-6.12074297+0.00000000e+00j  0.3767644 -4.96099828e-23j
  0.6232356 +4.96099828e-23j]
HOMO = 0.180891816154  LUMO = 0.46390764816
     k-point                  mo_energy
   0 ( 0.000  0.000  0.000)   [-5.28251924 -5.28250804 -3.36628938 -3.36620594 -3.3661953  -3.36617727
 -3.36613352 -3.36609538 -0.75582992 -0.72822142 -0.24643938 -0.24359693
 -0.24262313 -0.23953773 -0.23673526 -0.21434153 -0.21404785 -0.20829455
 -0.20772387 -0.20322678 -0.08299674  0.07302159  0.08330844  0.10649173
  0.1354962   0.18089182] [  0.46390765   0.73707946   0.8537579    1.03471647   1.03473218
   1.08845979   1.10084924   1.10146238   1.15924212   1.22588822
   1.2262373    1.27357835   1.27361811   1.29606581   1.44791681
   1.49065945   1.53148004   1.53261463   1.69060255   1.69185258
   1.7231334    1.77339527   1.83129045   1.83143488   1.92223828
   1.92224512   1.92376585   2.14382402   2.14435548   2.16366093
   2.16399051   2.53311107   2.63839728   2.64843094   2.73081171
   2.73089715   2.77959865   2.77964988   2.93053224   3.03148634
   3.03181951   3.06363548   3.08292536   3.08315978   3.35760083
   3.38830187   3.38852473   3.44308605   3.55582433   3.55591805
   3.55871598   3.55893307   3.76255004   3.76268043   3.86210688
   3.86219429   4.021121     4.0212168    4.02970343   4.29277716
   4.57193709   4.76230608   4.98731166   4.98754565   5.03102411
   5.03121116   5.04875886   5.04899875   5.0974709    5.09762004
   5.14142267   5.15871835   5.18799801   5.21650889   5.21657931
   5.25476447   5.30421118   5.30429096   5.31559551   5.31560155
   5.69746603   6.08284018   6.08307572   6.10499729   6.10655511
   6.13218426   6.23549226   6.25216801   6.2524313    6.28250559
   6.34961357   6.35113286   6.35970327   6.35983836   6.65831726
   7.55107075   7.91783395   7.91798862   7.97144196   7.97195911
   8.00940575   8.01029669   8.04223576   8.15074239   8.15192598
   8.18384088   9.74367211   9.74402869   9.76284739   9.93491775
   9.93525545   9.97391342  10.21465556  10.2146741   10.30995588
  10.31003699  10.45061669  10.772493    10.77266127  10.85417055
  10.89899069  10.89912841  17.25477052  17.25478371  17.26566144
  17.26580105  17.27355461  17.28032263  17.30292463  17.31594323
  17.31613094  17.33349854  17.34108072  17.34117246  17.35851026
  17.35872967  17.45421079  17.45422065  17.4545926   17.45461237
  17.45504008  17.45506519  17.45519422  17.45545711  17.45610402
  17.45621962  17.45667148  17.45676052  17.45766403  17.45800358
  17.45808987  17.45826344  17.45828712  17.45834473  21.73085779
  22.21980077  74.77475079 100.81185663]
   1 ( 0.000  0.000  0.500)   [-5.28251378 -5.28251378 -3.36623431 -3.36623431 -3.36618373 -3.36618373
 -3.36613117 -3.36613117 -0.74189416 -0.74189416 -0.24374235 -0.24374235
 -0.24099814 -0.24099814 -0.23563406 -0.23563406 -0.21073588 -0.21073588
 -0.21017252 -0.21017252  0.02488073  0.02488073  0.08995494  0.08995494
  0.11156822  0.11156822] [ 0.63325252  0.63325252  0.92989047  0.92989048  1.04529623  1.04529623
  1.04562215  1.04562215  1.2437382   1.24373823  1.32150247  1.32150247
  1.32223831  1.32223831  1.49777109  1.4977711   1.49785746  1.49785746
  1.53974825  1.53974829  1.80451501  1.80451502  1.84860505  1.84860505
  1.84971506  1.84971506  1.94862601  1.9486261   2.57819789  2.5781979
  2.57822998  2.57822999  2.73990319  2.73990322  2.79685249  2.79685256
  2.79689877  2.79689881  2.92288364  2.92288372  2.92293374  2.92293379
  2.963207    2.96320702  3.41568061  3.41568061  3.41577288  3.41577289
  3.43071071  3.43071075  3.60231539  3.60231544  3.61953794  3.61953795
  3.61967833  3.61967834  4.18492213  4.18492229  4.18496083  4.18496095
  4.88323908  4.88323911  5.04887881  5.04887882  5.06783411  5.06783416
  5.06796814  5.06796817  5.13966555  5.13966556  5.16600457  5.16600457
  5.16602204  5.16602204  5.22235935  5.22235935  5.41370747  5.41370758
  5.41387089  5.41387096  5.997207    5.99720701  6.08296276  6.08296276
  6.18518294  6.18518295  6.18654795  6.18654795  6.21893476  6.21893477
  6.42897659  6.42897667  6.42931794  6.42931799  6.90405786  6.90405787
  7.88480891  7.88480891  7.88558198  7.88558198  8.06497759  8.0649776
  8.06548668  8.06548668  8.06991272  8.06991273  9.56687783  9.56687784
  9.56704859  9.56704859  9.81971519  9.81971522 10.08058104 10.08058105
 10.08070602 10.08070603 10.45142108 10.45142112 11.2259491  11.22594923
 11.22611581 11.2261159  17.25477741 17.25477741 17.2775418  17.2775418
 17.28492292 17.28492292 17.28501524 17.28501524 17.3278993  17.3278993
 17.3512974  17.3512974  17.35147454 17.35147454 17.45422938 17.45422938
 17.45487256 17.45487256 17.45509891 17.45509891 17.45519628 17.45519628
 17.45667987 17.45667987 17.45668747 17.45668747 17.45809586 17.45809586
 17.45972551 17.45972551 17.45982599 17.45982599 21.16852892 21.16852893
 93.91838881 93.91838926]
   2 ( 0.000  0.500  0.000)   [-5.28251054e+00 -5.28250655e+00 -3.36629117e+00 -3.36623456e+00
 -3.36620613e+00 -3.36617790e+00 -3.36616064e+00 -3.36614934e+00
 -7.30325694e-01 -7.21693955e-01 -2.39957390e-01 -2.35096157e-01
 -2.24035228e-01 -2.23622163e-01 -2.18770447e-01 -2.17632667e-01
 -2.09375154e-01 -2.06391999e-01 -2.04052329e-01 -2.03761520e-01
 -6.75184769e-02 -2.65832560e-02  2.94933380e-03  2.60281143e-02
  7.00571493e-02  8.78354302e-02] [  0.754369     0.76735218   0.7943096    0.88702913   0.96781807
   1.00834103   1.03848729   1.11914801   1.17955536   1.27557231
   1.29870808   1.35726935   1.50429083   1.52318398   1.56461172
   1.56747302   1.68618373   1.71978915   1.75141863   1.75946742
   1.7897078    1.90708891   1.91212006   1.95597393   2.00944563
   2.04361409   2.18800056   2.21080341   2.25981439   2.27053521
   2.29179111   2.37535594   2.42575041   2.65723899   2.7005864
   2.70920765   2.72087525   2.7629188    2.81570754   2.87392362
   2.89900467   2.90225261   2.94855515   3.05172503   3.12379315
   3.21140059   3.2267076    3.32878713   3.3643194    3.46587951
   3.53766571   3.62472017   3.63680538   3.69153322   3.73123997
   3.9799439    4.00262442   4.18380248   4.19634094   4.24416187
   4.63090749   4.66950295   4.82278281   5.03681044   5.05002926
   5.0611046    5.09562955   5.11227708   5.17620517   5.19573337
   5.20634024   5.20946113   5.21870075   5.22755862   5.22762392
   5.270803     5.27374155   5.33775797   5.38217672   5.41908185
   6.04959322   6.13862615   6.16044751   6.17584002   6.19759772
   6.20197048   6.21303262   6.21592121   6.23616283   6.26461685
   6.27839074   6.32105267   6.41553434   6.47455038   7.38276485
   7.55625601   7.66140472   7.76290846   7.78744668   7.90215759
   7.95011591   7.98833235   8.07083976   8.07552831   8.1064683
   8.15928209   9.15959688   9.45993129   9.63839072   9.71719264
   9.74341511   9.8296125   10.02653503  10.03199134  10.23271415
  10.27498196  10.34430699  10.72305426  10.8530502   11.01221928
  11.13051068  11.22256806  17.25912993  17.27228217  17.27301902
  17.28072781  17.29221136  17.29405953  17.30614081  17.30743696
  17.31020108  17.32787763  17.32935609  17.37112214  17.37351341
  17.38554857  17.45423746  17.45481769  17.45483097  17.4548312
  17.45501203  17.45519694  17.45524679  17.4553119   17.45541631
  17.45551907  17.45629257  17.45663487  17.4569001   17.45802682
  17.45926817  17.45965524  17.46076729  17.46248077  21.73391883
  22.45838377  99.12206561 100.56636517]
   3 ( 0.000  0.500  0.500)   [-5.28250864 -5.28250864 -3.36627847 -3.36627846 -3.36619251 -3.3661925
 -3.36614369 -3.36614368 -0.72559145 -0.72559145 -0.23872182 -0.23872182
 -0.22710855 -0.22710855 -0.21865147 -0.21865147 -0.20860213 -0.20860213
 -0.20442542 -0.20442542 -0.06561813 -0.06561813  0.05696069  0.05696069
  0.06957153  0.06957153] [ 0.72636104  0.72636104  0.88107317  0.88107317  0.96689684  0.96689684
  1.07848314  1.07848314  1.16717478  1.16717478  1.41981277  1.41981277
  1.44760864  1.44760864  1.58189462  1.58189464  1.6026281   1.6026281
  1.76897935  1.76897935  1.90114283  1.90114283  1.91610439  1.91610441
  2.14200537  2.14200541  2.14757108  2.14757109  2.24380821  2.24380831
  2.3798738   2.37987384  2.62022066  2.62022066  2.63173008  2.63173012
  2.70730397  2.70730397  2.74298626  2.74298627  2.82601088  2.82601092
  2.93193449  2.93193451  3.31936752  3.31936754  3.36021652  3.36021652
  3.52150099  3.52150101  3.64445233  3.64445233  3.71402907  3.71402912
  3.88573893  3.88573894  3.92306751  3.92306773  3.95918374  3.95918389
[...]
  1.47822909  1.49067462  1.55171509  1.56232705  1.62263179  1.65001059
  1.68604244  1.73633613  1.76254777  1.88594101  1.92075606  2.00987113
  2.04040956  2.06573823  2.14815375  2.23037055  2.26191431  2.38465452
  2.40996452  2.49317357  2.55407459  2.58105852  2.65719423  2.71605599
  2.73184935  2.76432174  2.78929908  2.80320314  2.87546775  2.95883279
  2.98128755  3.03692247  3.13063592  3.20583141  3.27031503  3.31285553
  3.40102244  3.49438519  3.53381166  3.57802184  3.64592798  3.72025275
  3.74600943  3.91420079  4.05057092  4.18886634  4.28613765  4.31328547
  4.58296272  4.69281646  4.8296886   4.94386099  4.9898707   5.0811797
  5.1298704   5.16782213  5.18022726  5.18334738  5.19624616  5.20512991
  5.22237277  5.23230522  5.24301268  5.25930916  5.28313791  5.30480789
  5.33304523  5.43581318  6.06211039  6.11373658  6.13526254  6.16795584
  6.18828181  6.19675207  6.20357144  6.22735348  6.24961268  6.26848235
  6.3166769   6.35333578  6.49384656  6.57557926  7.41106668  7.60368339
  7.72519496  7.77151399  7.78075919  7.82963726  7.94665459  7.9688646
  8.04196198  8.05980161  8.15548984  8.20523338  9.06584018  9.2640386
  9.54426102  9.64265869  9.74475799  9.85443188  9.94365217  9.96619291
  9.99031692 10.18515136 10.31913898 10.80557962 11.02009885 11.06197636
 11.21350476 11.29778778 17.258528   17.26148017 17.27134514 17.27279332
 17.27530728 17.28169515 17.28229256 17.28684725 17.30516253 17.30679749
 17.32510571 17.32818291 17.3664105  17.37583089 17.44490803 17.44508115
 17.44529667 17.44539749 17.44551389 17.44568898 17.44576621 17.44591572
 17.44609512 17.44658383 17.44691444 17.44715245 17.44758178 17.44880857
 17.44935065 17.44979488 17.45271155 17.45478312 21.85795137 22.24418176
 98.70410808 99.65587852]
   3 ( 0.312  0.500  0.500)   [-5.29372612 -5.29372612 -3.37763994 -3.37763994 -3.37742581 -3.37742581
 -3.37735223 -3.37735223 -0.72781306 -0.72781306 -0.24485644 -0.24485644
 -0.23860481 -0.23860481 -0.23040019 -0.23040019 -0.2204491  -0.2204491
 -0.21180203 -0.21180203 -0.0514288  -0.0514288   0.0267667   0.0267667
  0.065705    0.065705  ] [ 0.75961397  0.75961397  0.88041737  0.88041737  0.93798865  0.93798865
  1.08480876  1.08480877  1.19981975  1.19981975  1.34261761  1.34261761
  1.46382755  1.46382755  1.58078599  1.58078599  1.68394532  1.68394532
  1.76473501  1.76473502  1.87996534  1.87996536  1.98162312  1.98162316
  2.03032304  2.03032304  2.16996109  2.16996111  2.29966505  2.29966509
  2.39188726  2.39188728  2.56916292  2.56916294  2.66489914  2.66489915
  2.72070837  2.72070838  2.81141707  2.81141708  2.87274377  2.87274378
  3.07245278  3.07245281  3.17750262  3.17750263  3.36614596  3.36614598
  3.50223708  3.50223711  3.55453143  3.55453144  3.6459167   3.6459167
  3.78346157  3.78346159  3.98672488  3.98672493  4.20942513  4.20942519
  4.7637584   4.76375843  4.89029281  4.89029283  5.02411724  5.0241173
  5.11920512  5.11920512  5.17154018  5.17154018  5.19139303  5.19139304
  5.22136505  5.22136505  5.25277259  5.25277259  5.33631737  5.33631738
  5.38839239  5.38839242  6.08888633  6.08888633  6.13745545  6.13745545
  6.18050196  6.18050196  6.23998073  6.23998074  6.26662421  6.26662421
  6.3258316   6.32583161  6.46420369  6.4642037   7.23056366  7.23056368
  7.75448172  7.75448173  7.8457214   7.84572141  7.98813082  7.98813083
  8.07864073  8.07864074  8.13374957  8.13374958  9.22769482  9.22769483
  9.49645739  9.49645739  9.76395893  9.76395894 10.06046327 10.06046328
 10.14004195 10.14004196 10.47043166 10.47043169 10.85830436 10.85830443
 11.09076632 11.09076638 17.25778382 17.25778382 17.26345272 17.26345272
 17.27367084 17.27367084 17.28759921 17.28759921 17.3178212  17.3178212
 17.34364402 17.34364402 17.37200787 17.37200787 17.44498451 17.44498451
 17.44542481 17.44542481 17.44575988 17.44575988 17.44609882 17.44609882
 17.44626055 17.44626055 17.44692156 17.44692156 17.44872051 17.44872051
 17.44989547 17.44989547 17.45211208 17.45211208 22.65360677 22.65360682
 97.90778298 97.90778536]
   4 ( 0.812  0.000  0.000)   [-5.29373423 -5.29372561 -3.37763381 -3.37761922 -3.37741783 -3.37740041
 -3.37737707 -3.37732602 -0.75097983 -0.72741773 -0.25151643 -0.25106969
 -0.24825927 -0.24309682 -0.24278899 -0.22574337 -0.22389555 -0.22236415
 -0.21735301 -0.20858922 -0.07371349  0.0336991   0.05356634  0.06557422
  0.09629787  0.10467551] [ 0.60843957  0.79901423  0.83892911  0.93518283  1.0261518   1.05517833
  1.06527775  1.10707194  1.13709281  1.18370031  1.24118604  1.36644107
  1.41341879  1.41788427  1.46584699  1.47072593  1.54220044  1.60686053
  1.65305568  1.69377068  1.73694969  1.76245556  1.79977152  1.85378847
  1.9084526   2.01828147  2.12680351  2.13988587  2.20371635  2.33014324
  2.4858896   2.52417407  2.58220206  2.63795164  2.65021759  2.67271878
  2.71261788  2.8025407   2.86375976  2.91679668  2.95064611  2.98109483
  3.0086402   3.00877428  3.19249389  3.2740645   3.30887839  3.49597996
  3.514278    3.53353729  3.55126417  3.59807708  3.68208353  3.71890691
  3.80763828  3.86105176  4.08158281  4.10792261  4.2554005   4.39547837
  4.72916648  4.79839225  4.83423487  4.93701415  5.00279865  5.06916654
  5.08392317  5.10810733  5.13067891  5.14335439  5.16156023  5.17802332
  5.18147874  5.19674825  5.19969241  5.24403951  5.26744414  5.32156223
  5.38007008  5.48379358  5.97002511  6.09710022  6.10053109  6.10967
  6.11860465  6.12908359  6.19433284  6.21979261  6.22420949  6.2862894
  6.31137718  6.32642012  6.41822487  6.45053319  7.08143127  7.31621627
  7.81531913  7.83268818  7.8734053   7.9196893   7.9994583   8.00438548
  8.01702784  8.09336101  8.0957158   8.21920348  9.34855152  9.43193517
  9.45033695  9.84367857  9.90703803 10.00369511 10.01860886 10.06634236
 10.15262432 10.33880311 10.54070592 10.66648193 10.7595057  10.99550803
 11.06901153 11.36920756 17.24677733 17.25401132 17.25560693 17.25792217
 17.2637399  17.26395594 17.27941454 17.29372689 17.2950355  17.30031906
 17.31141058 17.33520484 17.34122881 17.36239991 17.44487764 17.44505354
 17.44515605 17.44528068 17.44532539 17.44552343 17.4456197  17.4459462
 17.44596782 17.44707856 17.44709609 17.44750126 17.44765128 17.4484983
 17.44852058 17.44910222 17.4498897  17.45403718 21.6248079  22.27550935
 93.81851432 99.73989041]
   5 ( 0.812  0.000  0.500)   [-5.29372999e+00 -5.29372999e+00 -3.37762658e+00 -3.37762658e+00
 -3.37738884e+00 -3.37738884e+00 -3.37737330e+00 -3.37737330e+00
 -7.39151439e-01 -7.39151439e-01 -2.48289040e-01 -2.48289040e-01
 -2.47508852e-01 -2.47508852e-01 -2.42610031e-01 -2.42610031e-01
 -2.20364788e-01 -2.20364788e-01 -2.19575597e-01 -2.19575597e-01
  2.16814823e-03  2.16814824e-03  7.19345074e-02  7.19345075e-02
  7.50416467e-02  7.50416467e-02] [ 0.68752176  0.68752176  0.91873326  0.91873326  0.99714379  0.99714379
  1.06128493  1.06128494  1.21729158  1.21729158  1.3237875   1.3237875
  1.40358846  1.40358847  1.46498744  1.46498745  1.55952923  1.55952924
  1.68048093  1.68048095  1.76212808  1.7621281   1.85000355  1.8500036
  1.8890607   1.88906072  2.05987138  2.05987148  2.39863507  2.39863528
  2.51220919  2.51220921  2.69437444  2.69437451  2.71623759  2.71623764
  2.78252672  2.78252677  2.88332396  2.88332397  2.95573162  2.95573179
  3.03403188  3.0340319   3.30387821  3.30387823  3.43464076  3.43464077
  3.43874189  3.438742    3.57398628  3.57398631  3.58635522  3.58635527
  3.71233491  3.71233498  4.09690807  4.09690865  4.19345576  4.19345624
  4.8270808   4.82708081  4.87877133  4.87877144  4.95249985  4.95249986
  5.12450629  5.12450632  5.14107373  5.14107373  5.17406407  5.17406408
  5.18657597  5.18657597  5.21478689  5.2147869   5.28720687  5.28720688
  5.32238947  5.3223896   6.08342117  6.08342117  6.10994261  6.10994261
  6.174758    6.17475801  6.18797592  6.18797593  6.25400142  6.25400142
  6.33090771  6.3309078   6.34639499  6.34639503  7.4132965   7.41329657
  7.86919026  7.86919026  7.87041268  7.87041268  8.04627414  8.04627415
  8.07882588  8.07882591  8.13220211  8.13220212  9.47259229  9.4725923
  9.60549484  9.60549486  9.83191695  9.83191697 10.02052273 10.02052277
 10.06640507 10.06640511 10.48474172 10.48474176 10.94601858 10.94601884
 10.99754755 10.99754792 17.25977842 17.25977842 17.26092736 17.26092736
 17.26874781 17.26874781 17.26982273 17.26982273 17.31026322 17.31026322
 17.32710387 17.32710387 17.34436494 17.34436494 17.44513227 17.44513227
 17.44520079 17.44520079 17.44553771 17.44553771 17.44571037 17.44571037
 17.4462756  17.4462756  17.44667154 17.44667154 17.44853214 17.44853214
 17.44963924 17.44963924 17.44995763 17.44995763 21.83808829 21.83808836
 98.56653184 98.56653275]
   6 ( 0.812  0.500  0.000)   [-5.29372779e+00 -5.29372431e+00 -3.37764910e+00 -3.37762495e+00
 -3.37742775e+00 -3.37741510e+00 -3.37737137e+00 -3.37734141e+00
 -7.32687903e-01 -7.23700167e-01 -2.48826439e-01 -2.43031383e-01
 -2.34617432e-01 -2.32270337e-01 -2.28280613e-01 -2.26472321e-01
 -2.22933113e-01 -2.21987812e-01 -2.14951277e-01 -2.05902787e-01
 -4.74024106e-02 -2.93100181e-02 -2.17140954e-03  7.99027773e-03
  6.05119766e-02  6.49393003e-02] [ 0.75361053  0.79599726  0.84089655  0.89236264  0.97188663  0.9849549
  0.99680254  1.0983137   1.17867723  1.27468784  1.37861937  1.38858197
  1.4782291   1.49067462  1.55171509  1.56232705  1.62263179  1.65001059
  1.68604244  1.73633615  1.76254778  1.88594101  1.92075605  2.00987113
  2.04040957  2.06573826  2.14815376  2.23037055  2.2619143   2.38465458
  2.40996459  2.49317358  2.55407457  2.58105839  2.65719426  2.71605598
  2.73184935  2.76432172  2.78929909  2.80320319  2.87546776  2.95883272
  2.98128754  3.03692247  3.13063592  3.20583143  3.27031508  3.31285554
  3.40102244  3.49438521  3.53381169  3.57802182  3.64592799  3.72025274
  3.74600943  3.9142009   4.05057083  4.18886575  4.28613766  4.3132859
  4.58296269  4.69281645  4.82968861  4.94386101  4.98987074  5.08117961
  5.1298704   5.16782213  5.18022726  5.18334738  5.19624616  5.20512992
  5.22237278  5.23230523  5.24301267  5.25930914  5.28313791  5.30480786
  5.33304519  5.43581314  6.06211041  6.11373657  6.13526255  6.16795584
  6.1882818   6.19675206  6.20357144  6.22735347  6.24961271  6.26848237
  6.3166769   6.35333579  6.49384658  6.57557901  7.41106699  7.60368293
  7.72519495  7.7715139   7.7807592   7.82963726  7.94665459  7.9688646
  8.04196198  8.05980161  8.15548979  8.20523338  9.06584019  9.26403861
  9.54426102  9.64265868  9.74475799  9.85443188  9.94365217  9.96619294
  9.99031691 10.18515137 10.31913893 10.80557979 11.02009887 11.06197634
 11.21350291 11.29778897 17.258528   17.26148016 17.27134514 17.27279332
 17.27530728 17.28169515 17.28229256 17.28684725 17.30516252 17.30679749
 17.32510571 17.32818291 17.3664105  17.37583088 17.44490803 17.44508115
 17.44529667 17.44539749 17.44551389 17.44568898 17.44576621 17.44591572
 17.44609512 17.44658383 17.44691444 17.44715244 17.44758178 17.44880857
 17.44935065 17.44979488 17.45271155 17.45478312 21.85795107 22.2441818
 98.70411635 99.65587751]
   7 ( 0.812  0.500  0.500)   [-5.29372612 -5.29372612 -3.37763994 -3.37763994 -3.37742581 -3.37742581
 -3.37735223 -3.37735223 -0.72781306 -0.72781306 -0.24485644 -0.24485644
 -0.23860481 -0.23860481 -0.23040019 -0.23040019 -0.2204491  -0.2204491
 -0.21180203 -0.21180203 -0.0514288  -0.0514288   0.0267667   0.0267667
  0.065705    0.065705  ] [ 0.75961397  0.75961397  0.88041737  0.88041737  0.93798865  0.93798865
  1.08480877  1.08480877  1.19981975  1.19981975  1.34261761  1.34261761
  1.46382755  1.46382755  1.58078599  1.58078599  1.68394534  1.68394536
  1.76473502  1.76473503  1.87996535  1.87996537  1.98162316  1.98162321
  2.03032306  2.03032308  2.16996113  2.16996118  2.29966513  2.29966518
  2.39188728  2.39188731  2.56916294  2.56916297  2.66489915  2.66489917
  2.72070839  2.72070841  2.81141708  2.81141709  2.87274379  2.87274382
  3.07245283  3.07245288  3.17750263  3.17750264  3.36614598  3.366146
  3.50223711  3.50223715  3.55453144  3.55453145  3.64591671  3.64591672
  3.7834616   3.78346162  3.98672498  3.9867251   4.20942521  4.20942529
  4.76375842  4.76375845  4.89029284  4.89029287  5.02411735  5.02411744
  5.11920513  5.11920513  5.17154018  5.17154018  5.19139304  5.19139305
  5.22136506  5.22136506  5.2527726   5.2527726   5.33631739  5.3363174
  5.38839242  5.38839244  6.08888633  6.08888634  6.13745545  6.13745545
  6.18050196  6.18050196  6.23998074  6.23998076  6.26662421  6.26662422
  6.32583161  6.32583162  6.4642037   6.4642037   7.23056368  7.2305637
  7.75448172  7.75448173  7.84572141  7.84572142  7.98813083  7.98813083
  8.07864074  8.07864074  8.13374958  8.13374958  9.22769484  9.22769486
  9.49645739  9.49645739  9.76395894  9.76395895 10.06046329 10.06046331
 10.14004196 10.14004198 10.47043168 10.4704317  10.85830445 10.85830455
 11.09076638 11.09076645 17.25778382 17.25778382 17.26345272 17.26345272
 17.27367084 17.27367084 17.28759921 17.28759921 17.3178212  17.3178212
 17.34364402 17.34364402 17.37200787 17.37200787 17.44498451 17.44498451
 17.44542481 17.44542481 17.44575988 17.44575988 17.44609882 17.44609882
 17.44626055 17.44626055 17.44692156 17.44692156 17.44872051 17.44872051
 17.44989547 17.44989547 17.45211208 17.45211208 22.65360682 22.65360686
 97.90778338 97.90778496]
    CPU time for get_k_kpts: make_kpt ki>=kj (0,*)     18.80 sec, wall time      0.66 sec
    CPU time for get_k_kpts: make_kpt ki>=kj (1,*)     45.54 sec, wall time      1.49 sec
    CPU time for get_k_kpts: make_kpt ki>=kj (2,*)     72.86 sec, wall time      2.39 sec
    CPU time for get_k_kpts: make_kpt ki>=kj (3,*)     91.13 sec, wall time      3.03 sec
    CPU time for get_k_kpts: make_kpt ki>=kj (4,*)    115.31 sec, wall time      3.87 sec
    CPU time for get_k_kpts: make_kpt ki>=kj (5,*)    141.70 sec, wall time      4.71 sec
    CPU time for get_k_kpts: make_kpt ki>=kj (6,*)    164.61 sec, wall time      5.54 sec
    CPU time for get_k_kpts: make_kpt ki>=kj (7,*)    180.47 sec, wall time      6.09 sec
Monkhorst pack size [2 2 2] ew_eta 1.2528073871489522 ew_cut 5.612295470572105
Ewald components = 6.40452191691014e-106, -0.707210608233433, 0.614458283656676
    CPU time for get_j pass 1     97.94 sec, wall time      3.09 sec
    CPU time for get_j pass 2      4.80 sec, wall time      2.10 sec
    CPU time for vj and vk    937.92 sec, wall time     33.12 sec
Ewald components = 1.15473660899624e-35, -1203.36764844879, 949.599005991309
E1 = (-388.1598932375701-1.4917135465138489e-12j)  E_coul = (159.60487276638273-8.360570272539071e-13j)
Extra cycle  E= -482.323662928664  delta_E= -3.15e-10  |g|= 3.87e-05  |ddm|= 0.00381
    CPU time for scf_cycle 1193419.71 sec, wall time  37816.96 sec
    CPU time for SCF 1193419.75 sec, wall time  37817.00 sec
converged SCF energy = -482.323662928664


******** <class 'pyscf.pbc.scf.khf.KRHF'> ********
method = KRHF-KSCF-RHF-SCF-RHF
initial guess = minao
damping factor = 0
level_shift factor = 0
DIIS = <class 'pyscf.scf.diis.CDIIS'>
diis_start_cycle = 1
diis_space = 8
SCF conv_tol = 1e-07
SCF conv_tol_grad = None
SCF max_cycles = 50
direct_scf = True
direct_scf_tol = 1e-13
chkfile to save SCF result = /burg/ccce/users/eav2136/projects/core_level_spectroscopy/04_hf_bandstructure/tmp/tmpds0zlo08
max_memory 700000 MB (current use 2575 MB)


******** PBC SCF flags ********
N kpts = 8
kpts = [[0.35167409 0.20303913 0.        ]
 [0.35167409 0.20303913 0.31970372]
 [0.35167409 0.79369843 0.        ]
 [0.35167409 0.79369843 0.31970372]
 [0.86320005 0.49836878 0.        ]
 [0.86320005 0.49836878 0.31970372]
 [0.86320005 1.08902808 0.        ]
 [0.86320005 1.08902808 0.31970372]]
Exchange divergence treatment (exxdiv) = ewald
Monkhorst pack size [2 2 2] ew_eta 1.2528073871489522 ew_cut 5.612295470572105
Ewald components = 6.40452191691014e-106, -0.707210608233433, 0.614458283656676
    madelung (= occupied orbital energy shift) = 0.18550464915351483
    Total energy shift due to Ewald probe charge = -1/2 * Nelec*madelung = -4.82312087799
DF object = <pyscf.pbc.df.df.GDF object at 0x15553556b2e0>
Set gradient conv threshold to 0.000316228
Big error detected in the electron number of initial guess density matrix (Ne/cell = 52.0188)!
  This can cause huge error in Fock matrix and lead to instability in SCF for low-dimensional systems.
  DM is normalized wrt the number of electrons 52.0
    CPU time for vnuc pass1: analytic int  13008.19 sec, wall time    409.64 sec
    CPU time for contracting Vnuc [0:1296]   1323.26 sec, wall time     41.99 sec
    CPU time for contracting Vnuc   1323.26 sec, wall time     41.99 sec
    CPU time for get_nuc  14331.72 sec, wall time    451.64 sec
nao 408 -> nao 184


******** <class 'pyscf.pbc.df.df.GDF'> ********
mesh = [9, 9, 17] (1377 PWs)
auxbasis = None
eta = 0.2
exp_to_discard = None
_cderi_to_save = /burg/ccce/users/eav2136/projects/core_level_spectroscopy/04_hf_bandstructure/tmp/tmpo7tble2k
len(kpts) = 8
    kpts = [[0.35167409 0.20303913 0.        ]
 [0.35167409 0.20303913 0.31970372]
 [0.35167409 0.79369843 0.        ]
 [0.35167409 0.79369843 0.31970372]
 [0.86320005 0.49836878 0.        ]
 [0.86320005 0.49836878 0.31970372]
 [0.86320005 1.08902808 0.        ]
 [0.86320005 1.08902808 0.31970372]]
Even tempered Gaussians are generated as DF auxbasis for  Zn O
  ETB auxbasis for Zn  [[0, [64.44032, 1]], [0, [32.22016, 1]], [0, [16.11008, 1]], [0, [8.05504, 1]], [0, [4.02752, 1]], [0, [2.01376, 1]], [0, [1.00688, 1]], [0, [0.50344, 1]], [0, [0.25172, 1]], [0, [0.12586, 1]], [0, [0.06293, 1]], [1, [80.35924839208091, 1]], [1, [40.17962419604046, 1]], [1, [20.08981209802023, 1]], [1, [10.044906049010114, 1]], [1, [5.022453024505057, 1]], [1, [2.5112265122525286, 1]], [1, [1.2556132561262643, 1]], [1, [0.6278066280631321, 1]], [1, [0.31390331403156607, 1]], [1, [0.15695165701578304, 1]], [1, [0.07847582850789152, 1]], [2, [100.210688, 1]], [2, [50.105344, 1]], [2, [25.052672, 1]], [2, [12.526336, 1]], [2, [6.263168, 1]], [2, [3.131584, 1]], [2, [1.565792, 1]], [2, [0.782896, 1]], [2, [0.391448, 1]], [2, [0.195724, 1]], [2, [0.097862, 1]], [3, [82.87971181031595, 1]], [3, [41.43985590515798, 1]], [3, [20.71992795257899, 1]], [3, [10.359963976289494, 1]], [3, [5.179981988144747, 1]], [3, [2.5899909940723735, 1]], [3, [1.2949954970361868, 1]], [3, [0.6474977485180934, 1]], [3, [0.3237488742590467, 1]], [3, [0.16187443712952335, 1]], [4, [68.546048, 1]], [4, [34.273024, 1]], [4, [17.136512, 1]], [4, [8.568256, 1]], [4, [4.284128, 1]], [4, [2.142064, 1]], [4, [1.071032, 1]], [4, [0.535516, 1]], [4, [0.267758, 1]], [5, [28.874534501273192, 1]], [5, [14.437267250636596, 1]], [5, [7.218633625318298, 1]], [5, [3.609316812659149, 1]], [5, [1.8046584063295745, 1]], [5, [0.9023292031647873, 1]], [6, [12.163192, 1]], [6, [6.081596, 1]], [6, [3.040798, 1]]]
  ETB auxbasis for O  [[0, [64.177152, 1]], [0, [32.088576, 1]], [0, [16.044288, 1]], [0, [8.022144, 1]], [0, [4.011072, 1]], [0, [2.005536, 1]], [0, [1.002768, 1]], [0, [0.501384, 1]], [0, [0.250692, 1]], [1, [52.41108427692326, 1]], [1, [26.20554213846163, 1]], [1, [13.102771069230815, 1]], [1, [6.551385534615408, 1]], [1, [3.275692767307704, 1]], [1, [1.637846383653852, 1]], [1, [0.818923191826926, 1]], [1, [0.409461595913463, 1]], [1, [0.2047307979567315, 1]], [2, [42.802176, 1]], [2, [21.401088, 1]], [2, [10.700544, 1]], [2, [5.350272, 1]], [2, [2.675136, 1]], [2, [1.337568, 1]], [2, [0.668784, 1]], [2, [0.334392, 1]], [2, [0.167196, 1]], [3, [7.569571782318998, 1]], [3, [3.784785891159499, 1]], [3, [1.8923929455797495, 1]], [3, [0.9461964727898747, 1]], [3, [0.47309823639493737, 1]], [4, [5.35472, 1]], [4, [2.67736, 1]], [4, [1.33868, 1]]]
num shells = 192, num cGTOs = 996
Drop 0 primitive fitting functions
make aux basis, num shells = 192, num cGTOs = 996
auxcell.rcut 21.766279220945407
make compensating basis, num shells = 24, num cGTOs = 148
chgcell.rcut 11.482117703874595
